/*--------------------------------*- C++ -*----------------------------------*\
  =========                 |
  \\      /  F ield         | OpenFOAM: The Open Source CFD Toolbox
   \\    /   O peration     | Website:  https://openfoam.org
    \\  /    A nd           | Version:  8
     \\/     M anipulation  |
\*---------------------------------------------------------------------------*/
FoamFile
{
    version     2.0;
    format      ascii;
    class       surfaceScalarField;
    location    "0.85";
    object      alphaPhi0.water;
}
// * * * * * * * * * * * * * * * * * * * * * * * * * * * * * * * * * * * * * //

dimensions      [0 3 -1 0 0 0 0];

internalField   nonuniform List<scalar> 
2805
(
-5.42775e-07
0.000109582
-9.48441e-05
9.90048e-10
-7.43406e-07
-8.21024e-07
-6.96367e-07
1.448e-06
5.5756e-07
-1.51191e-06
-1.85178e-07
6.87234e-08
-2.65518e-06
6.611e-06
-9.33142e-08
-3.6452e-06
-2.07125e-06
2.77781e-06
-6.42362e-07
-6.5877e-07
-3.55431e-06
1.41595e-06
-7.30585e-06
5.56471e-06
-1.67701e-07
-7.18699e-06
-1.38776e-07
5.60205e-07
-7.75135e-07
-9.13083e-06
8.85744e-06
1.95075e-07
-6.96801e-08
-1.14957e-07
7.94609e-08
1.23896e-07
-2.18901e-07
4.32984e-09
-2.67725e-07
-7.53394e-06
7.66825e-05
5.30442e-05
-2.15046e-06
1.6912e-06
-6.43749e-08
-2.91203e-08
9.18144e-08
-8.05326e-06
6.53272e-07
2.06174e-06
5.81056e-07
-1.14077e-05
1.01908e-05
-5.02317e-07
-1.85349e-06
-9.69548e-06
-3.26198e-06
-6.9309e-07
-9.98989e-07
1.66514e-06
5.08867e-06
-2.537e-06
9.6668e-06
-8.6961e-06
-4.58001e-07
-6.42244e-06
6.83502e-06
-1.54962e-07
-1.12657e-07
2.2238e-06
-3.33951e-08
2.81466e-07
-8.56565e-08
4.15937e-06
-1.31558e-05
0.000134322
-7.24967e-08
-0.000113843
-4.00929e-07
-2.41084e-06
-1.07633e-06
4.9115e-06
-1.12395e-08
-3.19292e-06
9.38996e-07
-1.89902e-06
-7.33848e-06
1.43181e-06
-9.93272e-08
-1.68798e-08
-1.16721e-07
1.13616e-06
-9.72416e-07
-7.68461e-07
1.32549e-06
1.18721e-07
8.31941e-07
9.36881e-06
2.75772e-06
-1.1432e-06
-1.54201e-06
-5.31522e-06
1.79895e-06
1.96229e-09
-2.62531e-05
0
-1.87692e-06
-6.92848e-07
2.93281e-06
-2.05945e-06
-0.000290822
-4.44098e-05
0.000335232
0.00013585
7.12827e-05
-1.79421e-07
0.000180974
-0.000119688
8.21814e-05
4.17426e-07
6.69345e-07
-2.60216e-08
0.00112203
-0.000778537
-7.47909e-07
-5.36384e-08
2.42596e-06
-1.13143e-05
3.74147e-05
2.47284e-06
7.20216e-06
-4.5542e-06
-6.86427e-06
2.08985e-06
1.49641e-06
5.83427e-06
-5.0033e-06
3.31007e-07
-3.44543e-07
3.33021e-06
3.32309e-06
-2.55248e-07
-9.3079e-08
4.8249e-07
0.000109563
0.0010198
3.78984e-07
2.57035e-06
-1.12813e-06
3.24703e-08
6.52954e-06
5.22115e-09
-1.6723e-08
1.8368e-06
-2.42323e-06
-0.000158694
-9.35432e-08
1.29114e-08
7.43344e-08
5.25661e-08
3.10206e-07
-1.39027e-07
4.43525e-07
1.06014e-06
5.1594e-09
-1.91754e-09
-4.31339e-08
-8.06568e-07
8.09331e-07
1.44811e-06
-1.11197e-06
9.82016e-09
1.26876e-08
-1.57e-06
-2.73624e-06
1.4141e-06
1.74295e-06
-1.558e-06
3.55022e-08
6.55581e-06
-2.98329e-06
-8.14275e-09
-8.16594e-07
8.22123e-07
-5.11403e-08
2.11471e-08
0.00011673
1.12059e-07
3.60787e-08
9.01997e-08
1.6358e-07
-2.23566e-07
-0.000138024
-8.06343e-08
-2.13452e-08
-3.46559e-07
-8.64557e-07
4.80778e-06
0
4.62929e-07
2.68831e-06
-2.83793e-06
-3.10142e-07
-8.67844e-08
-7.68241e-09
0.000772661
-0.000663051
2.14664e-07
1.14964e-06
3.15802e-06
-2.47974e-07
-7.44903e-06
-1.61439e-06
-1.6694e-07
1.18974e-07
-1.11844e-06
1.28528e-06
-1.97743e-07
-1.94203e-07
-2.77479e-06
-6.58755e-06
7.84799e-06
-2.5207e-06
2.14675e-06
2.80812e-07
-8.23544e-06
2.41866e-06
6.05761e-06
-1.02698e-06
-2.86683e-07
2.06072e-06
7.68618e-06
-2.76855e-06
6.02125e-06
-4.11649e-06
-4.63739e-06
-7.67486e-06
9.24916e-06
9.02546e-06
-8.03963e-06
-6.76579e-06
1.43281e-06
-3.11382e-08
-7.0781e-07
4.3183e-07
-2.55142e-06
1.25912e-08
7.60992e-09
2.06285e-07
9.58209e-10
1.29331e-07
7.08813e-07
0
-9.24954e-08
-6.62879e-07
-0.000159354
0.00028972
-0.000268601
0.000277689
-9.08803e-06
0.000281187
1.67502e-07
-1.88696e-06
4.7613e-06
-3.77351e-06
7.61525e-06
-2.65889e-06
-1.77071e-06
9.72248e-07
2.17575e-08
-5.00983e-09
2.4244e-06
-6.81045e-05
0.000182334
-0.000114229
8.65082e-07
-8.70386e-06
2.98166e-07
-5.21234e-07
-1.58566e-06
2.62976e-06
2.15399e-06
-1.74484e-08
3.28113e-06
-3.21074e-06
3.6816e-06
-1.6131e-06
2.66176e-06
-3.67407e-06
0
8.02968e-06
-6.41718e-07
-0.000143377
0.000144931
9.35711e-05
-1.5082e-06
-6.68602e-06
7.25882e-06
-0.000122117
5.40122e-05
4.88259e-06
-1.60325e-07
1.86753e-06
4.03335e-06
4.27361e-07
1.82512e-07
-1.68019e-06
8.42221e-07
-0.000268601
-1.81931e-06
5.6187e-08
-1.81344e-06
2.14737e-06
3.81373e-07
2.37108e-06
3.89848e-06
0.000256259
2.14307e-05
-1.83202e-06
-8.41085e-07
1.78236e-06
2.27424e-07
-7.62883e-06
5.96851e-06
-4.87101e-07
1.94355e-06
-4.40887e-07
1.01924e-06
-0.000261144
-7.45735e-06
9.97369e-07
-7.96594e-06
6.85199e-06
5.59949e-07
3.05245e-06
-1.51292e-06
0.000103903
0.000152356
-7.10021e-08
-1.05078e-06
-1.78718e-06
9.48018e-08
-1.82864e-07
-6.63032e-06
7.45281e-06
-4.34735e-06
-3.69812e-06
3.24572e-06
1.73888e-07
1.50277e-07
-4.75411e-07
9.64445e-08
-5.30641e-07
-1.31748e-07
1.99325e-07
2.09184e-06
-2.49016e-06
-6.59246e-06
7.83121e-06
4.75117e-06
-2.0676e-06
-2.10817e-06
-3.09438e-08
4.90761e-08
-4.87644e-08
-1.10337e-06
3.12413e-07
1.22072e-06
1.69942e-06
0.00015882
-0.00020323
0
-4.85712e-06
-1.65674e-06
-1.53735e-07
-3.18507e-06
5.67653e-06
-1.25604e-06
-9.07819e-06
-5.49205e-08
2.26619e-06
5.68613e-06
-1.888e-07
4.81167e-08
4.03702e-08
-8.44744e-07
1.1103e-06
3.00623e-06
-1.84301e-06
-0.000261144
-3.51016e-06
6.11519e-06
-1.59648e-06
3.34501e-07
-1.47061e-07
2.40154e-06
-1.47762e-06
-5.15758e-08
-3.26423e-08
5.21461e-05
1.75232e-06
-1.24351e-06
4.58254e-06
-4.51964e-06
2.10565e-06
-3.76744e-06
4.6122e-06
-1.53221e-07
2.33657e-07
-2.97033e-07
-4.19011e-07
-0.000258253
-2.89087e-06
6.72938e-07
1.88613e-06
-3.42963e-06
1.6856e-06
1.38056e-06
1.5615e-06
3.38857e-06
2.65588e-06
3.75179e-06
-1.7263e-06
1.11628e-06
5.02024e-07
0
-1.56219e-09
2.73763e-06
1.18571e-06
1.76427e-07
-4.43803e-07
1.53691e-06
-2.30169e-07
2.09549e-06
2.11547e-06
-1.98439e-07
2.77867e-07
-2.29953e-06
-2.71196e-06
4.69254e-06
5.47221e-06
-6.82167e-06
-6.49241e-07
7.47222e-08
3.07145e-06
-2.80843e-06
3.96086e-06
-1.35741e-06
-1.5585e-06
8.8648e-07
3.26588e-06
-1.35758e-06
-1.12921e-05
-1.202e-06
-2.1389e-06
-8.30424e-06
8.88259e-06
2.43942e-06
-2.33602e-06
-0.000258253
8.65058e-08
-1.12909e-07
3.05723e-06
-8.67284e-07
-3.67856e-06
2.56428e-06
-8.38479e-08
-6.72543e-08
4.22802e-06
-5.31982e-06
-3.64767e-07
8.74343e-06
-8.89547e-06
1.25075e-06
9.3261e-09
-6.47955e-06
-7.80895e-05
-0.00016601
-9.22433e-05
2.87176e-06
2.35735e-06
-5.5641e-07
-1.09027e-06
-7.90246e-06
1.10008e-07
-5.53704e-07
1.44212e-06
1.95188e-07
-9.99707e-07
3.23263e-06
-2.1756e-06
9.94694e-07
5.04407e-07
2.64538e-06
4.71631e-07
-7.18155e-08
3.18299e-06
2.70671e-06
-2.63725e-06
-9.05985e-06
-2.68233e-09
3.68459e-10
6.95292e-08
8.87247e-07
-8.75673e-07
-2.44802e-06
1.3149e-06
-0.00013172
-1.63114e-06
0
-7.37862e-07
-1.93449e-07
-4.20737e-06
8.34425e-06
-3.32052e-06
2.27311e-06
2.82784e-06
-4.68273e-08
-1.1129e-06
-1.23338e-07
1.87829e-06
1.28568e-06
1.63509e-06
1.05113e-06
-8.07517e-05
-0.00016601
-8.59437e-07
8.03166e-06
-6.93099e-06
0.000105999
0.000198389
2.18707e-08
-2.04716e-07
-0.000182334
1.63242e-05
-7.17628e-06
7.74676e-06
2.14853e-06
8.06929e-06
-7.31082e-06
1.99133e-09
-1.91717e-08
2.776e-06
-1.02735e-06
-3.94549e-08
-6.06895e-07
-1.72687e-07
-1.57219e-06
-8.74895e-06
-1.08933e-07
2.22532e-07
-1.12562e-07
2.50754e-08
-6.63205e-09
-5.40014e-07
-2.62969e-06
-2.80322e-08
-3.55551e-06
8.1643e-07
2.89426e-06
1.86399e-06
-2.13266e-06
-6.39225e-06
9.11554e-06
-2.94249e-06
-1.82749e-06
1.52773e-06
-3.03837e-06
3.10452e-06
5.93302e-08
-2.73503e-07
-4.55409e-08
7.76907e-06
-6.96499e-06
2.60865e-06
1.63934e-06
-4.3326e-10
-6.49641e-08
4.42985e-08
-1.98544e-06
-6.35179e-06
1.16698e-06
3.65407e-07
5.23514e-07
2.57961e-06
-9.31438e-10
-4.23694e-06
1.43152e-07
5.36959e-06
-2.58275e-06
9.87761e-07
-1.21136e-06
-4.23364e-06
-4.96271e-08
-3.4864e-08
8.06481e-08
5.66907e-06
2.94315e-06
-4.51442e-07
-4.69083e-06
3.40372e-06
5.6668e-08
9.34419e-07
5.91906e-06
-1.3992e-08
1.35381e-08
-5.58385e-07
-2.81408e-09
4.28148e-11
1.78829e-06
1.15157e-06
5.73943e-06
8.61116e-06
-7.74536e-06
3.76375e-06
-1.36506e-06
-1.57193e-06
-2.60371e-06
-1.44228e-06
0
-5.55195e-06
-2.07502e-07
-7.29221e-08
-1.22141e-07
1.84254e-08
2.98019e-07
1.62112e-08
4.02235e-06
9.68734e-07
-6.43388e-06
2.55314e-05
7.15859e-08
7.45161e-08
1.45979e-05
-1.63239e-05
1.62459e-06
-1.64862e-06
-6.3817e-08
-1.96147e-06
-4.35064e-06
-7.61114e-05
0.000142146
-6.60343e-05
-1.10953e-06
1.34629e-06
-1.47895e-06
1.89265e-06
0.00100855
-0.00018106
4.69617e-06
-8.11754e-07
-2.43608e-07
-2.98177e-07
-1.62976e-06
2.94515e-06
6.53375e-07
-2.53905e-06
3.03652e-06
-2.68633e-06
-7.33707e-06
3.47322e-06
2.51692e-06
1.18325e-06
8.50514e-07
6.58647e-07
-4.92843e-06
1.20284e-06
-1.38699e-06
-2.51568e-07
3.42613e-07
-3.60478e-06
3.51082e-06
-6.31893e-06
7.85967e-06
-3.8452e-07
-8.68076e-08
2.13006e-06
-1.08379e-05
-2.88036e-08
4.56544e-06
2.68873e-07
-4.03479e-06
3.05704e-06
3.40804e-06
7.19712e-08
-2.16396e-06
2.6693e-06
-6.77852e-09
4.20596e-06
5.56079e-08
-2.60226e-06
-4.18276e-10
-1.37541e-08
4.66301e-06
5.34324e-06
7.73312e-07
3.7771e-06
-7.58299e-06
-4.39654e-07
6.08324e-07
-3.58064e-06
-2.28028e-06
-4.04787e-06
1.49775e-07
-6.64069e-05
-5.57098e-05
-1.8396e-09
-6.04666e-09
-2.71982e-07
1.91771e-07
7.95163e-07
0.000103903
4.31051e-06
1.52465e-06
-2.40806e-07
-4.16333e-06
5.53826e-06
6.53311e-06
-3.93634e-07
5.05535e-06
2.40775e-06
-1.74496e-07
3.88114e-08
2.02208e-07
-1.35207e-06
6.14261e-06
4.78405e-06
-5.90241e-06
2.03478e-06
-1.24503e-06
-4.02126e-09
-4.64036e-08
1.53142e-06
-3.31875e-06
1.01016e-08
-1.76384e-08
6.14751e-09
3.19714e-06
-8.15563e-07
-3.31641e-06
-3.43637e-06
-4.49085e-07
-3.9662e-08
3.02533e-06
-1.54684e-06
2.43089e-06
-2.08715e-06
-1.68088e-07
-2.72951e-06
-8.79959e-08
6.61761e-08
-1.28606e-07
-4.92044e-06
-2.43427e-06
2.24153e-06
5.50311e-06
-4.26849e-08
1.02186e-06
7.13564e-09
1.54474e-08
-2.14329e-08
1.85113e-06
3.2632e-07
-1.36686e-06
6.4409e-09
0.000104579
-8.334e-05
-4.71266e-06
-7.43357e-06
-2.59557e-06
-1.33781e-06
3.40083e-06
1.61653e-06
-9.82684e-05
1.97781e-05
4.91281e-06
-7.00214e-07
6.30198e-06
-8.99429e-07
-3.08143e-09
2.57469e-06
4.53683e-06
1.70543e-07
-2.54388e-08
-1.45637e-07
3.01932e-06
-8.99953e-06
6.82183e-06
-1.46978e-06
4.66994e-06
1.86611e-06
-4.79931e-06
-2.76459e-07
-1.97674e-09
-1.03165e-07
2.11904e-06
2.51321e-06
2.79569e-07
-2.77486e-07
-5.94917e-07
0
-5.24029e-06
-6.96648e-06
6.22174e-07
6.69842e-08
-1.70916e-08
-9.49517e-09
5.40331e-06
7.14645e-06
-4.08148e-07
1.12701e-06
8.82243e-07
3.12324e-06
-2.74935e-06
0
-5.2705e-07
-4.42069e-07
-1.4482e-06
1.79474e-08
-1.91856e-08
-1.74814e-06
-4.40902e-07
4.0356e-07
-1.92445e-07
-3.60479e-07
2.8607e-07
-2.30927e-07
4.21472e-07
8.27233e-07
4.51189e-06
2.45311e-07
7.32579e-08
-7.04027e-06
9.47313e-06
5.61767e-06
2.84536e-06
-4.97111e-06
-1.66819e-06
-4.30719e-06
5.78971e-06
3.15764e-07
-5.68378e-07
-1.82047e-06
2.7107e-06
-3.53903e-07
2.32537e-05
2.94976e-07
-1.02543e-06
-2.51471e-06
2.00508e-06
-3.99393e-06
7.86012e-12
-4.53074e-07
3.01656e-06
5.43868e-06
2.43037e-07
-1.2011e-06
-2.1259e-06
-9.38046e-07
-5.92941e-07
-2.95357e-07
-5.7816e-06
2.41686e-06
-9.46707e-06
-3.61409e-08
3.9858e-07
1.61127e-06
-2.67135e-06
1.01669e-07
-1.33611e-06
-1.20839e-07
-1.43547e-06
-2.4235e-07
3.89168e-06
-5.16358e-06
-2.60782e-07
-1.29902e-06
-4.8475e-08
5.11218e-06
1.50735e-06
5.50698e-06
-3.42917e-07
4.84226e-06
-2.97035e-06
5.57428e-06
-3.57437e-06
1.02238e-06
-7.69757e-07
2.92042e-06
-4.96886e-07
-1.15344e-12
-5.18083e-08
-1.74061e-06
2.64194e-06
8.38501e-06
6.83999e-08
-1.19034e-07
-3.45779e-06
1.8015e-06
-1.63789e-06
1.34413e-06
-4.34478e-07
1.83129e-08
3.51642e-08
1.02721e-07
-3.26574e-07
-5.95683e-06
2.37552e-07
7.88973e-07
-3.7488e-08
1.46652e-08
-1.20263e-06
3.61287e-06
4.0438e-06
-1.80995e-07
-1.80199e-08
9.37043e-07
-7.19557e-07
-9.4828e-08
-4.94571e-06
-3.3252e-06
3.905e-07
-6.14627e-07
5.06163e-06
-2.75893e-08
0
-1.47053e-06
-5.97869e-06
4.20782e-06
-1.67189e-07
0
-5.22432e-07
4.87535e-07
-1.14994e-06
6.23916e-06
-6.63112e-06
-2.27794e-06
-2.44716e-08
5.2124e-06
3.06436e-07
-3.64183e-08
-3.34738e-06
2.34208e-06
-1.73774e-06
5.49469e-07
4.13415e-06
-1.34978e-06
0.000118322
2.87091e-06
8.10398e-05
-8.23164e-05
-3.8097e-07
-8.14313e-06
1.75685e-07
2.21321e-06
3.94864e-06
-3.63684e-06
-1.04672e-08
-6.06468e-07
3.55385e-08
-1.50077e-07
-6.37639e-07
-1.76276e-07
8.58478e-07
-1.84699e-06
5.75782e-06
-1.82332e-07
6.72116e-08
-7.1647e-08
5.72194e-06
-1.06401e-06
-3.1519e-06
6.45285e-07
1.14071e-08
1.83741e-06
-2.94493e-06
9.43673e-09
-1.08864e-08
7.99015e-08
-9.86028e-07
4.32913e-07
2.63626e-06
7.25215e-07
5.26214e-06
0.000187931
0.000838286
4.35506e-06
-4.05376e-06
9.58949e-08
-5.89759e-07
1.8407e-06
2.38571e-08
-7.63466e-08
-4.72208e-07
-8.21251e-08
-1.22112e-06
-4.08111e-07
-1.54631e-05
-6.70735e-05
0.000787848
4.29006e-05
-4.69086e-07
4.52246e-06
-4.59037e-06
2.091e-06
2.24294e-06
-2.46938e-06
5.52925e-07
0.00058084
0.000482431
-3.90046e-06
7.8655e-07
4.8704e-07
-9.08286e-07
1.10122e-07
-5.81595e-06
-1.24446e-07
2.6977e-07
5.91867e-06
-1.4447e-07
-1.38007e-07
-4.32024e-09
-5.53737e-09
5.50289e-06
-5.85525e-06
-4.94801e-07
6.11983e-08
-2.68281e-06
-3.03331e-07
-4.13741e-08
-4.45235e-06
2.44101e-06
3.81172e-06
1.38348e-06
1.66561e-09
-3.97826e-08
-0.000205472
0.0009105
-1.75803e-06
2.22024e-06
2.51043e-06
-3.92597e-06
-3.72367e-08
-1.86818e-07
0
-8.41124e-07
-2.0861e-06
2.46136e-06
-8.09137e-13
-3.18642e-06
1.8331e-06
2.87905e-06
8.7587e-06
1.72016e-06
1.7376e-06
-1.09717e-06
2.16677e-06
-1.57211e-06
1.71365e-06
-8.43991e-08
4.88727e-05
-3.45375e-06
9.48201e-05
-8.85208e-08
-2.61286e-05
1.10048e-06
1.06481e-06
-1.13361e-06
2.7711e-06
3.92243e-06
0
-9.15622e-07
-9.9002e-08
3.19503e-07
-2.15354e-06
1.07977e-06
-7.06047e-07
-6.18113e-07
9.49478e-08
0
-2.82509e-06
8.02177e-07
1.7611e-06
-2.84209e-08
6.14298e-07
6.15819e-06
2.10794e-06
-2.54454e-06
7.65356e-06
-6.40926e-07
6.73502e-08
4.5462e-07
-5.54563e-08
-8.87172e-07
2.78505e-06
-6.19768e-09
-4.34323e-06
0.00013373
2.63877e-08
1.44074e-07
-6.01429e-07
5.78323e-06
-6.26667e-07
-1.14407e-08
-1.73013e-07
1.58456e-06
-6.77147e-07
5.83987e-07
-3.69919e-06
-3.1422e-07
-3.72057e-06
2.04803e-07
-2.94493e-07
-4.35712e-06
2.77575e-05
-5.48807e-07
-2.67427e-07
-1.72012e-07
-2.97455e-07
2.65604e-07
-6.02433e-05
0.000137876
-1.42845e-05
5.7462e-07
-4.24291e-06
-5.18557e-08
-4.11996e-06
-1.1031e-06
2.20656e-06
3.07485e-06
-1.0754e-06
-5.00502e-08
5.00613e-07
4.30437e-06
-7.26047e-07
0.000276303
-0.000316948
2.10477e-05
3.20225e-06
-8.9987e-07
6.79724e-07
-9.67075e-07
-1.15509e-07
1.23952e-07
4.55721e-08
-1.03998e-07
7.96427e-09
-2.49635e-06
7.63203e-07
-1.1272e-05
1.15613e-07
-5.83282e-08
-7.79541e-07
8.60421e-07
-2.98079e-09
1.59934e-07
-2.11619e-07
5.30063e-05
-1.6534e-05
2.488e-06
-7.25083e-08
-9.45444e-08
0.000293769
0.000630836
1.63138e-06
2.60182e-06
1.49643e-07
-5.89226e-07
-4.38988e-07
-6.32862e-07
2.01276e-06
-1.1178e-07
8.58128e-05
2.58785e-06
4.34599e-05
0.000232843
1.34771e-08
-1.47861e-06
9.00475e-06
-1.2056e-07
-3.29253e-06
1.13227e-06
-7.85006e-07
-1.54477e-05
0.00014718
-6.42216e-08
-6.96376e-07
4.07238e-06
-2.22039e-08
-5.53365e-06
2.9854e-06
-8.90696e-08
-7.5046e-06
7.33143e-06
0.000809927
6.40482e-05
-1.50144e-08
1.60105e-08
6.61926e-07
-3.88154e-06
8.96409e-06
-7.17763e-07
-1.5699e-05
3.18873e-05
-8.03842e-08
-2.78085e-07
1.74292e-06
-9.05801e-08
3.00768e-06
4.86122e-07
1.40194e-06
1.03306e-06
2.81468e-05
0.000530375
5.11279e-06
-1.00516e-06
-2.51252e-08
-0.000131648
-2.83113e-06
0.00014614
-4.38813e-06
1.96524e-05
1.01889e-07
-6.49554e-06
2.94447e-07
-4.96436e-06
-4.8928e-08
-2.21443e-07
6.3831e-10
-5.06529e-08
2.7517e-06
3.71923e-06
2.42887e-07
1.32684e-05
-1.4882e-05
-3.47653e-06
1.20913e-06
-2.44701e-05
2.65711e-05
0.00145785
-2.03677e-05
-4.60392e-05
6.70579e-07
1.07099e-05
-9.53089e-06
3.79192e-06
2.69306e-06
-6.00407e-06
7.62434e-07
-9.73344e-07
-2.34862e-09
-8.8576e-06
-1.08105e-06
6.10037e-07
-7.74853e-07
-3.60682e-08
-2.40234e-06
-3.91532e-06
6.13358e-05
-1.34043e-08
-2.88964e-08
-3.08423e-06
4.63378e-06
-7.74452e-08
-2.06826e-05
-1.02918e-05
2.42291e-06
1.61765e-07
8.67636e-08
1.01662e-06
-1.69536e-06
-3.56826e-08
-4.75748e-07
5.19733e-05
1.74127e-06
1.05829e-05
1.42503e-08
-5.61524e-08
-2.30457e-07
7.19069e-07
-2.91486e-07
4.50786e-06
4.50655e-06
-4.54368e-06
-3.36676e-07
7.6316e-07
1.23297e-08
4.82705e-06
-4.03855e-06
-1.76185e-06
-5.14681e-06
0
8.92543e-07
7.25141e-07
2.30315e-06
5.5853e-07
-1.9029e-09
-5.19459e-08
-6.85119e-08
0.000255948
0.000475119
-0.000731067
1.31692e-06
-1.42414e-07
1.19149e-07
-1.99631e-08
0
-6.53884e-09
-2.37637e-05
1.11184e-05
4.87584e-08
-7.56347e-08
2.22784e-07
-1.98693e-05
9.43108e-07
8.3323e-06
-1.44348e-07
-6.23294e-08
1.31628e-06
-1.22027e-06
3.58318e-06
-3.75181e-06
-2.33142e-05
0.00013264
0.000103446
-5.60461e-07
4.2235e-07
-6.40501e-06
1.36119e-06
-3.56982e-07
1.25095e-06
1.22748e-06
9.67103e-05
-7.83091e-09
-5.24231e-09
-1.85973e-08
1.98034e-05
-3.56432e-05
1.62473e-06
-1.25685e-06
6.62324e-07
1.08455e-05
-2.03343e-06
1.14827e-05
-1.82156e-08
6.68448e-08
2.56028e-06
-3.08665e-06
6.04778e-06
-7.50312e-06
-4.76088e-06
1.1089e-06
7.96676e-08
-1.07492e-07
-2.02049e-08
3.88556e-09
8.06133e-08
-9.27505e-08
1.43866e-09
-3.7917e-09
-2.38288e-07
-2.0177e-08
-1.31108e-06
7.99772e-07
8.40544e-07
-7.44183e-07
0.000268044
-0.000268044
5.77134e-07
-0.000113237
0.000206769
1.60951e-07
-9.58921e-08
6.06297e-08
-9.51698e-07
7.62447e-05
0
3.54229e-06
9.99166e-07
-4.68661e-10
-7.12826e-07
1.35986e-06
7.25976e-07
2.502e-09
4.63634e-06
-9.52504e-07
0.000136128
-2.68388e-06
-4.28963e-09
-2.35949e-07
4.17496e-06
3.14365e-06
2.23644e-06
-5.10174e-08
-1.41034e-09
3.445e-05
0.000382863
4.4095e-06
-4.32052e-06
1.10363e-06
-1.21983e-06
5.01727e-06
1.68325e-05
-4.87962e-06
3.56719e-05
-9.57932e-06
2.10583e-06
1.96515e-07
4.37844e-06
-6.35735e-08
8.45342e-05
-3.16224e-06
-7.63789e-08
1.52181e-07
8.23283e-06
-2.74361e-08
-9.74467e-06
1.8731e-08
-5.014e-07
-2.50104e-06
1.71467e-09
2.57643e-06
-0.000284834
0.000146417
5.88222e-07
-7.80051e-06
8.28203e-06
7.40463e-09
5.15176e-07
-2.74938e-06
2.55383e-06
1.53547e-06
2.59855e-09
-1.04653e-08
1.96068e-06
-6.79986e-06
9.08311e-06
8.01275e-06
4.90293e-06
-2.91004e-06
1.14314e-07
-4.72587e-07
5.41479e-05
-0.000118432
6.30705e-06
-3.49469e-06
4.64995e-06
-3.88881e-06
8.73003e-08
3.48248e-06
-2.05317e-07
-1.09474e-06
2.36226e-06
7.29312e-06
-3.25808e-06
3.11699e-06
-4.92756e-06
-2.5573e-06
-7.34946e-07
-7.31279e-09
0.00133707
0.000121605
1.03436e-06
-9.67308e-10
-1.19926e-09
-5.09666e-06
1.13898e-06
1.17696e-05
-4.82263e-06
0
-1.82557e-07
-2.84244e-06
-4.03072e-09
-6.06251e-07
5.12602e-08
-0.000329151
0.00032915
0.00169358
4.62847e-06
-3.72381e-07
4.00488e-05
-3.37353e-07
1.73411e-09
3.00199e-06
-2.97613e-06
3.25983e-06
-1.58521e-06
2.65946e-09
-3.13258e-09
-3.45277e-05
0.000106375
-7.1847e-05
1.50441e-07
-1.34896e-07
-8.00327e-06
-3.93238e-09
3.42064e-07
4.85358e-07
9.80334e-07
2.43922e-07
9.64097e-09
-3.32204e-07
7.84466e-06
-3.02729e-06
1.01351e-05
4.07617e-06
8.88319e-10
-6.2469e-07
1.43288e-06
-3.97993e-06
2.49762e-06
1.4755e-06
3.73234e-06
7.36316e-07
-7.26847e-07
0.000315472
-0.000644623
-1.1974e-09
-0.000522588
-0.000205407
0.00050334
7.93821e-06
1.90563e-06
9.09584e-06
4.958e-06
-3.97831e-05
-2.52107e-06
3.72558e-06
8.47576e-06
-5.74759e-05
-1.41306e-09
0
8.37642e-08
2.56548e-06
-2.0699e-06
-1.11585e-05
2.41362e-06
-1.00275e-06
1.51215e-06
0.000146987
-0.000138339
1.07507e-06
-1.07969e-06
7.78212e-09
-3.26123e-09
3.74541e-07
3.10098e-07
8.1127e-06
5.04238e-06
3.85108e-06
4.48328e-07
1.12621e-06
4.34998e-09
-5.54749e-09
8.18999e-10
-3.24289e-09
-7.42978e-07
1.58045e-07
-1.60419e-07
1.88922e-08
-2.90919e-08
-1.20357e-07
-1.6309e-10
-2.91374e-06
-5.84439e-07
-2.32187e-06
4.87576e-06
-3.10715e-06
-6.08692e-08
1.18376e-05
-3.83577e-06
-4.05201e-07
-8.13082e-08
-2.59797e-06
3.2019e-05
-3.32866e-05
3.02815e-08
-4.54286e-08
5.48524e-07
-1.25191e-06
1.15576e-05
-2.48535e-06
1.21177e-09
2.18796e-05
-2.55939e-05
-2.74741e-05
1.16033e-05
4.09731e-06
1.77888e-08
7.57851e-06
-1.96877e-08
8.70699e-08
-3.62648e-06
5.54635e-07
6.74329e-07
0
5.36332e-07
1.56679e-06
9.03455e-07
5.71571e-07
-5.28682e-06
-6.8634e-08
0.000540503
-1.53993e-06
-4.36341e-06
4.27621e-07
8.80821e-08
-5.12361e-06
5.71878e-06
2.29324e-07
2.42472e-07
-1.6728e-07
-2.41229e-05
4.14865e-05
6.8849e-06
-4.56999e-06
0.000503733
-1.2641e-06
1.5373e-06
3.04658e-06
4.89168e-06
1.24512e-08
1.41369e-07
-1.18223e-06
7.13766e-06
2.98715e-06
1.27299e-08
5.09622e-09
-7.08993e-09
4.72192e-06
-3.53071e-06
-6.31743e-06
2.93527e-06
8.53859e-07
0.000426864
8.32264e-07
2.92135e-07
-3.12875e-07
2.68746e-06
4.20459e-06
2.23677e-08
4.71294e-06
-8.08798e-07
-3.79187e-07
-0.000117127
2.49131e-05
-2.78099e-05
2.3136e-09
2.99002e-06
0.00191817
-0.00022456
0.00139482
2.3323e-08
-2.36452e-06
0
-8.12266e-10
0
-1.92227e-05
-7.80043e-07
8.26283e-09
7.82559e-06
2.48425e-07
5.95536e-10
-7.8291e-10
8.207e-07
-1.93445e-08
3.21902e-09
-6.59352e-08
-1.20892e-10
3.62681e-06
3.67892e-06
-2.89248e-06
1.30626e-06
0
-3.93605e-06
4.44033e-06
-3.18019e-06
1.17846e-07
3.66867e-06
-6.12198e-08
-3.48316e-06
7.34573e-06
-1.09483e-06
2.23693e-06
-4.80194e-06
2.21876e-06
-4.76011e-05
8.04328e-07
-3.29115e-07
-1.09603e-05
-3.72472e-06
1.24153e-07
-6.78578e-06
3.72647e-06
7.99135e-09
-1.84895e-07
3.0236e-08
5.8042e-06
-8.02826e-06
-1.54763e-06
1.49775e-06
1.49538e-06
2.70976e-06
7.82124e-07
-5.34366e-07
-2.00578e-06
7.86708e-06
1.05564e-06
-0.000771909
0.000902727
-1.08661e-06
1.51301e-06
6.1985e-07
-4.62188e-07
-4.20163e-10
4.89377e-05
-5.38181e-05
1.6312e-06
5.50996e-06
2.83544e-07
-3.23433e-08
0.0001191
4.99427e-05
7.69109e-06
-1.31302e-06
-7.46514e-05
-8.29316e-08
2.28351e-06
7.69875e-07
-1.03565e-06
2.57317e-06
2.54074e-08
5.71479e-06
-8.26871e-07
4.2513e-08
-2.30689e-08
1.44677e-06
-9.7121e-07
5.38315e-05
-5.65947e-05
-4.89376e-05
5.51085e-05
2.524e-06
-5.4765e-07
5.85255e-06
-1.33588e-06
6.59898e-06
0.000470967
3.47261e-05
2.37866e-07
2.35817e-07
-1.60792e-07
-5.59749e-06
7.60527e-08
-5.6647e-05
5.65802e-05
7.71159e-10
-9.26471e-10
0.000204019
-0.000122042
-9.49715e-05
-4.57709e-05
-3.76956e-05
-7.11356e-08
2.06583e-09
2.27702e-06
-1.46711e-06
-3.28371e-11
0.000467895
3.14543e-06
-1.57854e-06
-0.000122762
-2.99002e-06
5.12963e-07
1.78507e-07
-4.47912e-07
5.46696e-07
5.78201e-07
-1.11238e-07
-2.71392e-07
-0.000235496
-2.46265e-06
5.04478e-06
8.07899e-11
1.39074e-06
-4.61979e-08
-3.29524e-07
1.81977e-06
2.22368e-06
2.42722e-07
-5.45758e-05
-1.38441e-08
4.11106e-07
1.08425e-05
-2.87968e-06
-2.5951e-06
2.91511e-06
-1.32833e-08
2.76374e-07
-6.36519e-09
3.56149e-08
2.13057e-08
-2.14542e-08
-0.000116653
1.40063e-05
8.26911e-09
7.53905e-07
-0.00024258
-0.000348278
-9.13006e-05
1.14289e-06
-1.19338e-07
5.47041e-05
-5.4754e-05
1.75978e-08
-2.15322e-08
1.3561e-07
-4.70428e-05
4.36717e-05
1.46496e-05
-4.87186e-05
3.4069e-05
3.93558e-06
-1.80986e-11
-9.27252e-07
-1.41799e-06
1.04898e-06
-2.55168e-06
-4.52344e-06
1.07422e-06
-6.07292e-06
8.43641e-06
-9.50043e-07
2.36202e-05
-2.8647e-05
-3.2377e-06
5.81425e-06
2.08975e-06
5.49244e-05
-5.44184e-05
7.62375e-08
-4.2257e-06
2.23075e-05
-5.72515e-05
2.85136e-06
-3.96215e-06
2.27563e-06
6.60089e-08
-2.39907e-08
1.6634e-07
-3.05201e-06
0
3.27172e-06
-0.000150787
3.27132e-05
6.65111e-07
2.73747e-07
5.51153e-06
-2.72007e-05
0
2.11181e-06
1.46491e-06
2.84265e-06
-0.00056391
-4.74099e-06
5.55215e-06
-5.83227e-06
-4.18549e-06
9.1681e-08
-1.57852e-07
3.4942e-07
-0.000902766
0.00067825
5.53146e-07
1.12847e-08
2.05571e-09
-6.54888e-10
8.0665e-09
-8.13388e-09
5.37773e-05
-5.1803e-05
-5.71516e-08
5.74744e-07
8.46474e-10
-1.59199e-05
3.03659e-05
-3.97619e-05
-3.68651e-06
4.81824e-06
4.9756e-05
-7.01237e-05
4.36583e-10
-1.05254e-07
3.42587e-07
-0.000359699
-0.000301538
5.64959e-06
-2.40727e-06
1.85476e-06
1.13486e-06
2.55759e-07
-2.56796e-08
4.71214e-06
5.44266e-07
-2.99192e-07
2.82967e-07
1.84955e-08
-2.43525e-08
3.73915e-05
-7.19193e-05
-1.07236e-06
4.63721e-06
-3.07281e-06
-3.73887e-07
3.80242e-07
5.20535e-06
-2.1776e-06
0.000165613
-7.72766e-06
3.30764e-07
-1.13471e-07
2.78763e-05
-4.80292e-06
5.81581e-06
9.49886e-08
4.77896e-08
-1.51057e-08
-0.000225247
-2.75301e-07
9.27656e-10
0
-1.14421e-07
2.1034e-07
-0.000146748
-7.26519e-07
1.95872e-05
-0.000573368
4.8276e-05
-2.1209e-05
1.41428e-09
3.36359e-07
3.08247e-08
-9.72545e-08
-1.13411e-06
8.44007e-10
1.43745e-06
-4.11071e-06
1.59373e-06
3.39874e-07
8.15885e-07
2.77262e-06
3.44424e-06
5.39487e-08
1.9468e-06
5.28974e-06
-3.7194e-06
1.94545e-06
2.86886e-06
-0.000147978
0.000600528
3.87174e-05
-5.78122e-06
4.82948e-06
-1.04351e-07
2.41359e-07
-3.20963e-06
5.51821e-07
2.53523e-07
7.80427e-08
-3.72535e-07
4.6463e-07
1.80133e-06
4.04537e-08
4.09696e-06
-3.30943e-06
1.78506e-05
2.79662e-08
-8.5608e-09
0.000339777
-0.000371103
0.000114229
-6.44734e-05
1.06129e-07
5.57089e-06
-2.41702e-06
-1.53608e-06
2.28292e-05
6.77555e-08
0.000170559
8.60616e-05
-0.000385179
0.000142275
-0.00050582
2.48276e-07
7.1246e-07
-4.72589e-07
1.37771e-08
-6.34479e-09
1.47919e-09
0.000219676
0.000155006
-0.000560858
-3.29446e-05
3.02441e-08
-3.2739e-08
8.53811e-08
-8.23036e-08
-2.98752e-07
1.08739e-08
6.21985e-05
-7.38183e-05
0.000127933
-0.000331662
0.000788402
7.00601e-06
-1.26312e-06
4.56267e-06
-2.63158e-06
-0.000643559
0.000304594
1.97764e-06
2.10256e-05
-3.50386e-05
-1.02918e-09
3.51443e-10
-5.48981e-06
5.8077e-06
-1.5226e-06
5.32256e-07
-2.17944e-09
5.27453e-06
-3.07256e-06
6.99974e-08
2.10136e-06
9.54575e-05
-5.8066e-05
2.52375e-06
-0.000185538
-3.57206e-06
2.112e-06
3.09985e-07
9.92509e-08
-8.25365e-09
-1.28183e-07
2.15578e-07
-5.06655e-10
2.22778e-07
-9.08415e-09
2.53338e-05
-5.30982e-06
2.84445e-06
4.90831e-06
-2.80073e-06
6.46829e-09
3.61785e-06
2.40524e-06
6.48246e-07
-1.19917e-06
1.305e-06
8.36114e-06
-0.000415595
1.3636e-07
-1.84294e-08
1.56965e-09
-5.27115e-08
-0.00034548
-0.000256625
4.03311e-06
1.41076e-06
2.85354e-07
2.43572e-05
-0.000176656
3.04675e-07
3.86616e-06
-1.62105e-06
5.66293e-07
9.92284e-08
-3.83326e-07
6.73148e-09
3.68214e-07
-3.36408e-08
-0.000418973
3.70322e-06
1.68891e-07
-3.88563e-07
-0.000381563
-1.28739e-08
5.17484e-10
-0.000216278
9.22036e-09
-8.39631e-09
-0.000183849
-3.39776e-06
1.19874e-06
-5.47297e-05
6.03355e-05
-9.05268e-05
-3.20372e-07
1.44478e-06
-2.68568e-07
2.67758e-08
1.22438e-06
4.1835e-05
2.53339e-06
-1.23056e-07
2.02775e-07
8.7451e-08
-1.8245e-06
2.52255e-07
6.62532e-07
-3.16131e-07
-1.24979e-06
1.44941e-06
-3.48974e-05
3.44318e-05
9.45517e-06
-0.000602006
0.000784675
5.19902e-05
-0.000123909
1.0856e-07
0.000279626
8.27463e-08
-3.41163e-08
-5.79608e-06
5.50391e-06
-3.94768e-10
1.20589e-08
1.8574e-06
-2.8053e-07
1.59303e-08
-6.01402e-09
-8.46656e-09
1.38602e-10
-3.81423e-05
-3.46081e-07
-6.20549e-09
0.000101472
-4.94823e-05
-5.13069e-11
-0.000408149
5.81372e-09
0.000128782
-0.00012792
0.000208751
-0.000394286
8.64428e-05
-7.19487e-05
6.75593e-07
1.99052e-06
-0.000314005
0.000383435
-8.04496e-05
-0.000291802
7.81853e-05
4.2138e-05
-2.03111e-05
-4.44396e-06
4.09609e-07
6.44734e-05
-3.91396e-05
2.19153e-07
4.20846e-09
-2.0815e-09
-1.79156e-05
2.07126e-06
1.64865e-05
1.04302e-05
7.83406e-07
-1.08292e-07
-1.31088e-05
2.7541e-05
3.47259e-10
0.000219095
-7.88262e-05
-0.000138026
-3.66075e-05
8.9488e-06
9.91725e-08
0.000250916
-0.000140583
1.61386e-07
6.63509e-07
5.27102e-07
-4.12344e-06
5.27517e-05
6.05041e-10
-9.9033e-11
0.000484881
-0.00029263
3.91305e-08
8.32362e-11
-4.03257e-07
6.13022e-07
-1.68352e-09
-5.22948e-07
5.48012e-07
-5.21323e-07
1.99521e-08
-1.0992e-08
2.38299e-10
1.07457e-08
-1.54085e-08
9.70743e-10
-0.000178656
0.000169856
5.87458e-07
-3.75103e-07
-7.16348e-05
9.00134e-07
-2.74708e-09
1.02842e-08
-9.11002e-09
-3.04099e-10
0.000292141
-8.04128e-08
4.34065e-05
-6.99659e-05
8.71795e-05
-2.89663e-07
3.44455e-08
-5.95537e-07
-7.23209e-10
-4.27631e-08
1.9336e-07
3.95874e-08
-7.61149e-05
2.33801e-07
-2.90576e-08
-4.80731e-09
2.14418e-09
-1.59035e-06
1.13043e-06
0.000624415
-0.000296947
-0.000327464
1.42148e-05
-1.39989e-05
7.39794e-08
-8.41493e-08
6.05331e-08
-6.40917e-07
5.73332e-07
1.41887e-08
-1.76268e-08
9.67243e-09
-0.000546418
0.000655298
1.48014e-10
-2.45061e-11
7.20866e-08
-5.63369e-09
-0.000655387
0.000273841
6.79133e-09
2.70553e-08
-1.33649e-06
-2.56368e-05
1.25264e-07
-8.2102e-08
4.24503e-09
2.06454e-06
-1.28927e-07
-9.93564e-05
0.000108686
7.92327e-09
1.12758e-10
-3.20792e-11
9.27865e-08
-0.000273858
-0.000145098
-4.97671e-10
1.4282e-10
1.77044e-07
1.17739e-07
-5.06846e-09
4.62487e-11
3.46958e-08
5.55052e-11
-1.31594e-06
5.28577e-07
-1.05538e-11
-1.54382e-07
2.36812e-05
-0.000104131
6.85922e-07
6.20527e-05
-3.83716e-05
-2.01808e-07
0.000230133
-1.23693e-09
1.50211e-05
1.37445e-05
-1.27493e-05
4.17061e-10
2.2753e-09
3.91396e-05
4.26694e-06
-1.04917e-10
5.67263e-11
4.95877e-08
-2.91744e-08
1.25704e-05
-0.000387519
0.000669296
0.000186645
-0.000602239
-8.81907e-09
5.24139e-09
-1.84314e-07
-2.99827e-08
-8.13016e-05
-1.95593e-08
8.71444e-09
-1.69519e-08
0.000144228
-0.000461878
-1.58439e-07
3.99029e-08
0.000856203
-6.65785e-05
-9.58678e-09
1.02956e-08
5.89439e-11
-1.52942e-11
6.11474e-09
7.87553e-13
-2.04685e-09
0.000568349
-2.31762e-07
2.27287e-07
-0.000117176
0.000127851
-1.9983e-09
2.40361e-11
-1.47133e-06
1.39837e-06
1.22033e-08
-2.98769e-09
-0.000108414
2.71127e-05
-5.95896e-07
7.58312e-07
-1.59061e-06
1.68817e-05
-1.44013e-07
6.75159e-08
1.74047e-07
-9.37841e-07
6.78657e-07
-2.70705e-07
1.19978e-05
-1.11674e-05
-8.13768e-11
6.67784e-11
1.26413e-05
-2.05601e-05
0.000462439
-0.000539113
1.5803e-08
2.53868e-09
1.0228e-08
-2.08704e-09
-4.61187e-08
4.66448e-08
1.39341e-10
1.24649e-11
1.33688e-07
-2.29171e-05
-2.60081e-05
0.000161997
1.76909e-08
4.00099e-07
4.78986e-08
-9.07628e-08
-1.7664e-07
1.3142e-07
1.70528e-05
-1.67845e-05
1.21059e-10
-4.26694e-06
1.68374e-05
-1.54889e-05
1.59761e-05
3.91767e-08
-1.62058e-08
2.92644e-07
-4.49293e-08
-1.62286e-05
1.65325e-05