/*--------------------------------*- C++ -*----------------------------------*\
  =========                 |
  \\      /  F ield         | OpenFOAM: The Open Source CFD Toolbox
   \\    /   O peration     | Website:  https://openfoam.org
    \\  /    A nd           | Version:  8
     \\/     M anipulation  |
\*---------------------------------------------------------------------------*/
FoamFile
{
    version     2.0;
    format      ascii;
    class       volScalarField;
    location    "0.85";
    object      alpha.water;
}
// * * * * * * * * * * * * * * * * * * * * * * * * * * * * * * * * * * * * * //

dimensions      [0 0 0 0 0 0 0];

internalField   nonuniform List<scalar> 
1924
(
0.0963321
0.000261113
0.00011089
0.000117477
0.000258647
0.000549458
0.000697816
0.000133144
9.39072e-05
0.000167256
0.000562173
0.00079514
0.000198427
0.000824921
3.32175e-05
3.34413e-05
0.000104057
0.00053596
0.170662
0.000160838
0.00014133
0.00172715
0.00817319
0.000165515
0.00485855
0.000206528
0.000380905
0.00215234
0.00118866
0.000214606
0.000788093
0.00532249
0.0913755
0.00314054
0.00153228
0.00351477
0.00227144
0.00117415
3.91349e-06
0.000329435
0.000311857
0.00160484
0.000214308
0.00849905
0.000268628
0.000393358
0.0355518
0.00021571
1
0.33616
0.0908881
0.00145806
7.89496e-06
0.762149
0.00112105
0.00109117
0.141524
0.000246708
0.000276279
0.000369154
0.00849087
3.9867e-05
0.005776
6.59844e-05
0.993909
0.000132246
0.000248586
1.05148e-05
0.00118629
0.0519881
0.000149854
3.56558e-05
6.44211e-05
0.000534725
8.19443e-05
0.00166172
0.000128394
4.30405e-06
0.000507616
0.00559069
1.54952e-05
0.000454167
0.00014008
0.000141211
0.30558
0.000409685
0.000455363
3.31499e-05
0.992038
0.000158767
5.22067e-05
0.000367165
0.000267704
0.000243449
0.00014454
0.987921
0.00012872
0.000289778
0.000412176
0.000152175
0.000106222
0.0001481
0.000441776
0.000459096
0.000200393
0.00152794
0.000105891
0.000918232
0.000311392
0.000938023
0.00159793
0.00118387
0.0011597
0.000249555
0.000303596
0.000141248
0.000111578
3.35693e-05
0.000236932
0.000132246
0.534133
1
0.115384
0.00282134
0.000366925
0.00121637
0.00245238
3.87051e-06
0.00108423
1
0.00158893
0.000101796
0.0016731
0.000160873
0.000663976
0.000167867
0.000316118
0.000196626
0.000296113
0.000230674
0.000389483
3.71305e-05
0.261911
0.00471148
0.000678083
1
0.00140341
0.000149854
0.000309361
0.000141137
0.000134201
1
0.00245269
9.9517e-05
0.000678083
0.000969023
1
0.000107205
0.000302794
0.00158382
0.000170985
0.000612455
0.000654921
1
0.000147721
0.000133948
0.00020286
1
0.000141968
0.000428112
0.000180377
0.000678957
0.00152794
0.000421715
0.000574412
0.000125559
8.62565e-05
0.000149854
0.003907
0.000694702
0.000459084
3.33712e-05
9.12358e-05
0.000146955
1
0.0140311
0.00245238
0.000325215
0.00158453
0.000535034
0.00140341
0.000327425
2.78198e-05
0.000685773
0.000141215
1
0.000358917
0.000136843
0.000319352
0.000479444
0.332218
0.00158982
0.000132076
0.000332479
0.000180012
0.000460845
0.000345382
0.00166719
0.000659978
0.00347124
1
0.000115
0.000400302
0.000137623
0.000348687
0.0012655
0.000203358
0.000963305
0.000346961
3.42593e-06
0.000394475
0.000210253
0.000132795
0.000351756
0.000419885
0.000329579
2.65266e-05
0.00145858
0.000360205
0.000243668
0.00250504
6.71806e-05
0.000439911
0.000918402
0.000132755
0.00364579
0.000413944
0.000808678
0.000132795
1
3.3756e-05
0.000308998
0.000413053
9.81998e-05
0.000281169
0.000316237
0.000811839
0.000126082
8.7617e-06
0.00150951
0.0255225
1
0.000146923
0.000130181
0.00156623
3.30991e-05
0.000205332
0.000386232
0.00017513
0.000811839
0.000156948
0.000141244
0.000195523
0.000494795
0.00520523
2.66695e-06
0.0014095
0.00100224
0.00066449
0.258625
0.000409357
0.000128884
0.000180012
0.00113638
0.000103701
0.000287598
0.00081234
0.000121678
0.000116447
0.000313888
0.345318
1
5.54425e-05
0.000645801
0.534052
0.000534883
2.71673e-05
1
0.000811839
0.00031769
0.000590388
2.67765e-06
0.000119718
0.000143531
0.000141213
0.000387101
3.2873e-05
9.53441e-05
0.000133766
0.000106929
1
0.000361626
0.000413658
0.000178846
0.000159637
0.00110702
0.00139484
0.000410996
0.00114366
0.000248567
0.00100636
0.00311043
0.00041778
7.14144e-06
0.000128231
0.00420988
0.000144637
0.000201979
0.000657429
0.000135217
2.65763e-06
0.0023634
0.000692851
0.000101144
0.000563528
6.82858e-06
0.000325134
0.00109503
0.000134109
0.00016329
0.000270359
0.000438835
5.87702e-06
0.00015742
2.8158e-06
0.000110066
0.000164145
0.000657429
0.000140131
0.00068724
9.22685e-06
0.000135707
0.000493147
0.000399639
3.32738e-05
3.37609e-05
0.000307879
0.000445772
0.00909828
0.000588382
0.000267597
0.116399
0.0142911
0.00020132
9.51997e-05
0.00150022
1
7.26383e-05
0.00250396
0.946083
8.79412e-05
3.66478e-05
0.000404452
0.000131103
0.000267793
0.000349259
0.000516914
0.00252702
0.000124637
0.000657429
0.000397006
0.000136714
0.00082949
3.40009e-05
0.000331715
0.0112201
3.44528e-05
3.33991e-05
0.00544672
0.000421094
3.40902e-05
0.00146272
0.00044312
0.000135221
0.000270412
0.000301091
4.72911e-06
0.000159908
0.000234495
0.000615476
0.00290104
5.89815e-06
0.000270722
0.000445772
0.000377342
0.00251804
0.000205971
0.00389773
0.000716187
3.36796e-05
1
2.83877e-06
0.000492409
0.000312218
1
0.000303925
0.000622558
0.000445772
0.00163606
0.00020533
0.000360431
4.46564e-05
4.40824e-05
0.000807904
0.000660171
0.000175537
6.82858e-06
0.000268013
6.46072e-06
0.00146592
0.000169962
0.00252093
0.000573266
9.51721e-05
0.00271403
0.000250763
0.000347826
3.9218e-06
0.00129626
0.000191072
0.000276171
6.82858e-06
0.000208211
3.66527e-05
0.0002254
0.000218472
0.000348254
0.0470964
0.000815368
0.0054571
0.00199734
0.000255739
0.000152864
0.0838056
0.000395735
0.000577357
0.000259252
2.81574e-06
0.000261204
0.00016555
3.35653e-05
7.23679e-06
0.000116734
0.000754235
0.000462454
0.000132755
0.000329802
6.27045e-05
0.00140632
0.00019708
0.000588961
0.00221564
0.00849896
3.08555e-05
0.000335924
0.000315324
0.000445772
0.000269999
0.000788648
0.000507148
0.000251836
0.0011982
2.67765e-06
0.000562566
0.00016887
0.000588942
5.26489e-05
3.93117e-05
0.000425126
5.24009e-05
0.000261037
0.000726593
0.000304734
0.000432587
0.00238359
0.000262874
0.000876869
3.47975e-05
0.000190669
1.87859e-05
0.0470344
0.000191995
0.000723198
0.00069852
0.000247522
7.42962e-06
0.000459764
0.000290051
0.00119556
0.000358755
0.000189484
3.37874e-05
0.00253711
0.0054571
9.5219e-05
0.000175048
0.000335499
0.00136007
0.000467496
0.000383015
0.00082718
6.88388e-06
0.000286695
0.000117695
0.00024657
0.000250537
0.00321982
0.000291163
0.000754819
0.000132675
0.00403253
3.95698e-05
7.55989e-06
0.00038977
0.000124016
0.000402948
4.07953e-05
0.00424996
0.000982881
7.07152e-05
3.08986e-05
3.40672e-05
0.00353179
0.00356255
1.23377e-05
0.000162876
0.000695645
3.85481e-05
0.00849918
0.00165399
0.0023818
0.000262219
0.00433331
2.90691e-06
5.66064e-05
0.00115263
8.75013e-05
7.22796e-05
0.000393339
0.000745965
0.00134298
0.000303925
3.39852e-05
0.00404537
0.00136038
0.00237045
0.00224398
0.0709005
0.000533329
3.2156e-05
0.00545614
0.00179178
0.00199902
0.000238182
0.00253711
1.0708e-05
8.22366e-06
0.000318991
3.19178e-06
0.000156714
5.04283e-05
0.000192788
0.00136074
0.000226562
2.83877e-06
0.000337641
0.00224609
0.000394342
0.000189484
6.46072e-06
0.000529713
0.000448899
0.000262532
0.000245226
0.993909
0.00426954
0.000371663
0.0109349
7.42937e-06
8.66169e-05
0.000222258
0.00404542
0.257208
0.792733
0.0707638
0.000222146
0.000313879
0.00114308
0.000139453
0.00083982
0.94767
0.000368823
5.29834e-05
8.98062e-05
0.00404279
3.68583e-05
0.000450287
3.48984e-05
5.91249e-06
0.00385445
0.000160955
3.38398e-05
0.00226356
1.151e-05
0.00339307
0.000446184
0.000117353
1.08103e-05
0.768813
7.60014e-05
0.00038977
7.49581e-06
8.34449e-05
0.000965957
0.000434736
1.50404e-05
0.00224094
0.000448987
0.000459096
0.00944147
0.000449214
0.00134298
0.000262206
0.0155542
0.00404537
0.449347
0.0012162
0.222143
0.00107631
0.000336629
0.000196413
0.000176433
0.000159107
0.00136007
0.000175537
3.79557e-05
0.000300879
0.000134988
0.000260423
0.000770724
0.000545772
0.000186394
0.000134333
8.79412e-05
0.00224082
0.000263193
4.13985e-05
0.000117053
0.0010843
0.00520242
6.44099e-06
0.0546184
4.42627e-05
3.47103e-05
0.000372707
7.39071e-05
0.000160897
0.000448899
0.000696028
0.00350523
0.00339307
0.000138134
0.00585103
0.00011128
3.42894e-05
3.88613e-05
4.10173e-05
3.50804e-05
0.0709005
0.00707872
0.0002567
0.000371965
0.000258057
0.000135386
9.9118e-05
0.000111801
0.000193206
0.979745
0.000306066
0.00236804
7.84509e-05
4.81992e-05
2.78198e-05
4.63611e-05
4.14062e-05
0.00029834
0.0110169
1.03977e-05
0.000558262
4.72517e-05
7.98901e-06
0.0325699
0.000834611
0.000329591
0.928114
0.00105261
0.000175294
0.000604044
0.000396376
0.00193586
0.00039913
0.156181
0.000175704
1
8.25999e-05
0.000459096
0.000349739
0.00229635
3.8936e-05
0.497761
5.56839e-05
0.000303987
3.49126e-05
0.00224095
0.000235737
0.00014343
0.00986055
0.601002
9.87257e-06
0.000345077
0.000415456
0.01007
0.00313185
0.00294804
0.00013737
2.98672e-05
0.000139453
0.000178846
0.000101128
0.0333461
0.597207
0.000415938
5.30578e-05
0.638442
0.000268543
0.012544
0.00343601
0.00224395
4.4729e-05
3.64853e-05
1.59473e-06
0.000374678
4.05074e-05
0.00156865
0.000114358
7.55058e-05
0.00162704
0.902609
1
0.000105233
0.000325771
0.000212022
0.000384169
0.00011471
1.58962e-06
0.0110181
0.000701536
0.000681762
0.119975
4.63611e-05
0.000451842
4.55281e-05
0.0255576
0.000174295
0.000226758
7.73616e-05
0.00210741
0.000698487
0.0853443
0.000175294
0.0222116
8.55857e-06
4.06483e-05
0.00216836
0.000394481
1.62096e-05
3.77816e-05
0.000951446
0.000371532
0.000696061
0.00953345
0.00105243
0.000373071
0.000174152
0.00110686
6.77639e-05
7.73616e-05
1
0.00047719
4.13967e-05
0.0058214
6.06599e-06
2.6008e-05
0.00188632
8.54567e-06
3.80181e-05
0.0014199
0.000450713
0.000435782
7.49738e-05
4.36504e-05
0.000396678
0.000629889
0.648732
0.000403268
0.00376767
0.000105852
0.156162
2.47139e-05
0.000103818
0.0381766
6.5824e-05
5.38375e-05
0.112243
0.000169496
0.000395546
0.00482756
0.00028808
0.000484177
0.00376513
0.000286003
8.57011e-06
4.25149e-05
4.53511e-05
1.58912e-06
4.70552e-05
8.78766e-06
0.000104839
9.99991e-05
0.999999
0.000529291
0.35531
4.70918e-05
0.00045231
1
0.00335716
0.000338401
1.58923e-06
0.000104852
4.2449e-05
4.06385e-05
0.000227613
0.130681
8.47582e-06
0.000453095
0.000566466
0.00697889
2.41862e-05
0.467798
0.000205004
0.00010554
5.26536e-05
0.000174658
0.000495845
0.0385662
0.000174119
0.054093
3.8407e-05
0.107023
0.0037809
0.000115375
0.000321214
0.00594273
4.24713e-05
0.000114142
0.00329358
8.47748e-06
0.0038002
0.999725
0.000176977
0.000215471
0.000128169
0.000105134
0.00157085
0.00156469
1.59763e-06
0.000174119
0.000754235
0.000229974
0.00071964
0.00482757
2.45207e-05
0.450097
0.000384678
0.000372501
0.000192089
0.000136194
0.000179979
0.0425868
0.000176999
0.0037661
0.0004898
4.16915e-05
0.919762
0.000204429
1.58962e-06
0.000370215
0.00383308
4.9602e-05
0.000289332
2.4047e-05
0.00407937
0.000393798
0.999999
0.881824
0.000517299
0.00525414
0.000446855
2.41138e-05
1.0136e-05
5.5598e-05
0.000290882
1.58923e-06
1
2.88424e-05
0.00377188
9.30492e-06
6.59207e-05
4.60417e-05
0.00154634
0.00359104
0.000105138
3.76933e-05
0.00525014
0.00128835
1.05305e-05
0.000104097
0.00424384
0.00133418
0.000239723
8.55857e-06
0.999999
1.12275e-05
1
0.393493
0.00159662
0.00280957
0.0015048
0.0510345
0.000186528
0.0417193
1.68123e-06
0.0163113
0.00018964
0.000133368
0.345711
0.00593064
0.0102765
0.0037866
0.000105335
0.272448
0.000113465
2.32821e-05
0.000146193
0.0120776
0.000174119
0.000228795
1.59145e-06
1.9092e-07
0.00356946
8.61652e-06
2.32821e-05
0.000953768
1.86377e-07
0.000378893
0.00277856
0.00163701
0.000593102
0.00076408
0.00193226
0.000106866
0.00161971
0.0412809
2.41862e-05
0.00042881
0.00076408
1.58922e-06
0.00592352
0.00304656
0.00530909
6.01392e-06
0.00086089
9.91976e-05
0.00236037
0.000966011
0.000303043
0.00100053
0.000103777
0.000103777
0.00377665
0.000237254
0.092458
0.00991763
0.000105999
2.33788e-05
1.05272e-05
0.000270868
0.000752229
1.17945e-05
0.00747413
0.00525165
0.305227
0.000104852
0.00163701
1.85718e-05
0.000146058
0.0016367
0.00161955
2.33608e-05
1.73508e-06
0.000372501
0.000384678
0.000372695
1
3.80257e-05
1.05165e-05
0.00163268
5.91389e-05
0.000279127
0.000534922
7.0675e-05
0.533197
0.108198
1.73755e-06
0.000564691
0.921203
0.765277
2.49047e-05
0.000291628
0.00372389
1.65966e-06
0.0184022
0.000190706
3.22733e-05
0.000789641
0.000105141
1.86844e-07
2.30263e-06
5.39263e-07
1.98762e-07
0.000521709
0.00524032
0.000195672
0.0180936
0.000165842
9.13196e-06
0.00038845
0.000115889
0.000195562
0.000544282
0.00366269
0.00161971
0.0412884
0.000555309
0.00293663
0.00382455
9.0987e-06
0.00039481
6.992e-06
0.000104161
0.0021026
0.000106334
0.00210628
0.0048355
0.000582225
0.00162656
0.000949226
0.920796
0.000105955
0.000341249
1.80492e-06
0.00406856
0.00163784
0.000520771
0.900975
0.0260631
0.000623969
3.49546e-05
0.00163795
0.000105961
0.00163445
4.20297e-05
0.000103777
0.00406985
0.00379742
0.00012464
0.00163683
0.000401985
1.13833e-05
0.000948348
0.305507
0.000265593
0.0025248
0.0213088
0.00404781
1.87582e-07
0.618772
0.171847
8.26461e-07
0.000107607
1.86377e-07
0.305507
0.000171815
0.640724
0.597474
0.00026834
0.00569574
0.00200848
0.000131707
0.000642296
0.000188783
0.000460482
0.0793619
0.000172761
4.77444e-06
3.89233e-05
0.000508478
0.000550208
0.000577784
0.00383606
4.20057e-05
0.000104803
0.00079816
0.000178743
0.000673073
0.000584403
0.000108059
0.00010824
1.65299e-06
0.00738519
4.38113e-05
0.000299718
0.503644
0.520468
0.493619
0.00425666
0.00418277
2.20887e-06
0.000218927
0.00415472
0.970806
0.000588359
1.65299e-06
0.000396783
0.000146865
0.00038679
0.000370215
0.00404335
0.000794523
0.0148315
0.00163795
0.00163661
0.35531
0.00419023
0.00036477
0.398124
0.00210095
0.00163795
1.80272e-06
0.00117569
0.00036151
0.00420443
0.153775
0.00230687
3.22733e-05
0.000113118
0.00163262
0.00413183
0.000534285
0.000116268
0.000638139
0.732708
0.000380514
0.0127723
0.000593673
0.000154705
0.921206
0.0021534
1.5675e-07
1.87582e-07
0.00415246
0.000194086
2.04584e-07
0.0030213
0.00418784
0.0001537
1
3.30535e-05
9.65627e-05
0.728793
0.000804274
0.000149582
0.00158724
0.000154705
0.000691765
9.40642e-05
7.27647e-06
1
6.07965e-05
0.000487033
4.38113e-05
0.000384671
0.287884
0.000474597
0.000135309
0.826786
0.000477611
0.000886074
2.68745e-06
0.96441
0.237768
8.4539e-07
7.04191e-06
5.42482e-05
0.259817
0.000145175
0.0490156
0.731859
0.560904
0.000902768
7.35835e-07
0.00174254
0.000132425
6.86812e-05
0.00048156
0.000483929
0.000478833
0.00137536
0.000656486
0.000155302
0.000373616
0.000127745
0.000733051
0.160408
0.153831
0.000464882
5.28923e-05
0.00117654
0.000155999
0.012544
0.00136351
0.000101606
0.000479294
9.40642e-05
0.000433558
0.00411688
2.88086e-06
0.878232
1
0.0011477
0.000337595
0.000677853
0.63515
0.999999
0.000663331
0.830205
0.62233
5.0818e-05
0.000163083
0.00023719
1.62024e-06
1.73752e-06
0.314926
0.911905
1.65299e-06
3.79763e-05
0.000475884
2.35152e-06
0.0126838
0.241019
0.973211
0.000804274
0.000479647
0.923739
0.000485917
0.00203868
2.38444e-08
0.00047645
0.00102561
1.15896e-05
0.000475377
5.49078e-05
0.00035053
1
0.000858787
0.915612
0.000460289
0.00047645
1.69808e-07
4.95895e-05
0.00406856
8.59698e-08
0.000354131
1
0.000381298
0.000485082
1.742e-06
0.000804274
0.00406985
0.00143058
0.000139506
0.00152794
0.00406596
1
0.00170113
7.80671e-07
0.000405943
0.913981
0.000469247
0.00094565
0.712066
0.000228663
0.000484285
0.000408486
5.21008e-05
1.03615e-06
0.00432033
0.000223136
2.04714e-06
0.876021
0.000758788
0.000199972
0.552249
6.97456e-06
3.34836e-07
0.323054
7.29758e-07
0.241143
0.000136372
0.00418277
0.00418277
1
0.138315
0.00010709
0.921203
6.21872e-05
0.000484409
0.110559
0.000804274
4.67403e-05
8.73988e-05
0.000188055
0.89197
0.00419023
3.65758e-05
0.000163993
0.00292584
0.901918
0.621203
0.962429
1
3.80166e-05
0.907907
3.03539e-05
0.000475884
2.01679e-06
0.00047742
0.000475884
4.26948e-05
0.279604
3.35532e-08
0.00424108
0.00424108
0.00045845
3.7835e-05
1
0.00416777
1.92768e-08
0.913307
3.80293e-05
0.161505
0.986343
0.163859
0.000855373
0.904618
1
0.87029
0.139507
0.000329441
1
0.000353917
1.24041e-05
0.00292757
0.166815
7.06204e-05
0.206863
7.35022e-07
0.939671
0.106935
4.8755e-05
0.791461
4.02922e-05
5.39253e-05
1
0.00399357
0.0727394
1.97558e-08
0.544188
0.000296137
2.04454e-08
4.27675e-05
1.24763e-05
3.83322e-05
0.000176747
5.86622e-06
4.96892e-07
0.0790735
3.94592e-05
0.13689
0.000478659
7.46802e-07
-4.44206e-08
0.666045
0.00011744
0.922327
1
0.133774
9.54027e-05
2.46901e-05
1.51236e-06
4.19947e-05
3.9628e-05
0.914398
6.38398e-06
0.000274108
0.00160202
7.20184e-07
0.000186105
0.986343
0.00142348
1.94546e-06
1.60424e-05
3.7835e-05
4.44921e-05
1.45161e-06
0.786228
1.97231e-08
1.50204e-05
0.878676
5.85288e-06
0.000365683
0.00242964
4.87239e-05
5.17051e-06
0.000300845
0.145432
3.86688e-05
1.79312e-08
1.53781e-05
0.878676
2.98433e-08
4.56968e-05
4.26377e-05
4.23568e-06
0.00406626
1.79455e-08
1.742e-06
1.90187e-08
7.37533e-05
3.38316e-07
3.7835e-05
1
8.70308e-05
1
5.71096e-05
0.986343
5.85288e-06
1
0.0008042
0.00135516
0.00292584
1.2814e-05
1
2.64663e-08
6.38398e-06
1
0.98905
0.949083
0.999999
1.17133e-06
2.91936e-05
4.41308e-05
1
7.84853e-07
8.78007e-07
0.791312
1.68162e-05
0.965731
1.89135e-07
1.79312e-08
6.38398e-06
2.63632e-08
1.27131e-05
0.965589
7.35022e-07
0.142301
1.17133e-06
1.8003e-08
3.09112e-06
3.0158e-06
1
0.224025
4.19486e-05
0.171863
0.242125
2.31781e-05
0.212374
3.50704e-05
5.47747e-05
0.205496
4.72339e-05
0.00145904
0.209637
2.84334e-08
0.000904663
0.765846
0.20726
0.0657586
3.12469e-06
5.86677e-06
3.64145e-08
5.78896e-05
1.25599e-05
4.77436e-08
4.10096e-05
0.251426
0.815068
0.806656
0.133866
0.00089894
8.50427e-06
2.458e-05
0.00124367
1.80229e-08
1
0.00122299
2.8793e-05
0.000207152
0.00123533
0.875401
0.917358
0.999998
0.152564
3.98386e-05
0.000156275
0.988331
0.000701165
3.00752e-08
0.000394503
1.19342e-06
3.12469e-06
0.132781
0.878648
7.32123e-06
0.000113764
0.878676
5.18084e-05
0.142375
3.00738e-08
1.2825e-05
1
0.00143212
0.00143212
6.38398e-06
0.986336
7.89095e-05
5.4357e-05
0.000420068
1.64252e-05
1.30043e-05
0.00237794
0.00102142
0.000288808
5.02327e-05
0.878641
5.3998e-06
8.38949e-05
0.00026924
0.965648
2.61715e-05
0.156789
0.000409749
0.993756
0.00283349
1
5.54628e-06
8.33188e-05
0.000121839
1.4599e-05
0.00146544
0.000108677
1
0.808111
0.00300916
0.000395958
0.000355389
5.17474e-05
0.000564434
9.45988e-06
0.000291833
0.00225778
0.00102577
0.00297914
0.00306249
7.24325e-06
0.76586
0.000351857
0.00435561
2.47344e-06
3.68116e-06
1.27017e-05
5.18084e-05
0.000495443
6.85437e-05
1
1.6178e-05
0.154119
0.76586
4.01877e-05
0.000860231
0.988998
7.34836e-05
1.56778e-05
1.49007e-05
0.00120875
3.99868e-05
0.00112101
7.48658e-06
5.18597e-05
3.46603e-06
0.00122661
0.00441758
0.00101456
0.00124397
4.06217e-06
0.000155175
0.981368
9.51116e-06
0.000199729
2.66045e-05
0.00424544
0.000269793
3.65827e-06
0.852874
0.808817
0.000951318
1
0.000155021
5.40257e-06
1.15354e-05
7.42974e-06
0.00016185
0.000532993
0.000137332
5.70314e-06
5.18635e-05
8.82773e-05
3.38133e-06
1.04197e-05
0.0014941
1
1
2.68836e-05
3.35247e-06
2.06462e-05
0.833504
0.000190154
0.00398799
6.97495e-06
0.00202559
5.21392e-05
0.00352282
1.32747e-05
0.154503
0.154892
2.79615e-05
0.000112666
1.00079e-05
6.47233e-05
0.00435252
0.00441411
1.26461e-05
0.00441758
0.00422267
0.000341114
3.41257e-05
0.965302
6.11946e-05
5.2887e-05
5.3414e-05
1
1
5.16455e-05
2.79615e-05
4.51069e-06
0.00262977
0.00260402
0.00224413
3.34955e-06
0.000504973
3.6933e-06
0.000931718
4.79259e-06
3.6933e-06
0.0157882
0.00441758
1.00478e-05
0.00411047
0.00230616
0.00388548
0.00126975
0.00422267
1.18559e-05
8.00926e-06
5.71688e-06
0.0042499
0.00100497
0.00440059
1.00079e-05
0.000192894
0.00115586
0.0222948
6.14611e-05
0.0132133
0.0684578
0.0651354
5.19749e-05
0.754015
0.00231833
0.0113277
7.5099e-05
1.87134e-05
0.00182335
0.00441721
0.0026309
0.00263023
0.000319239
0.000211377
0.0042008
0.00241215
0.0225428
0.00359503
0.00128489
4.969e-06
5.77183e-05
0.00421229
0.0392091
0.0395244
0.0160829
5.93293e-05
5.03467e-05
1.0499e-05
6.21034e-05
1.44628e-05
1.00079e-05
0.00748116
0.00764823
0.000120259
0.00412189
0.00981072
0.00981072
0.00981071
0.00741066
0.00307592
1
1
3.27844e-12
1
0.00757922
1
0.073078
0.0730285
7.82678e-05
0.0717753
0.0717878
0.0666021
0.0429781
0.0728505
0.154216
0.117021
0.00981986
0.00981984
0.00263058
0.00981116
0.00981116
0.00977115
0.00728439
0.00981071
0.0639621
0.0639626
0.0639621
0.0639396
0.0506321
0.050066
0.00049067
0.00311048
3.97155e-05
0.00145196
0.0017938
0.00686973
0.754147
0.786082
1
0.406042
0.999268
0.804618
0.986329
8.09753e-06
0.943678
0.986336
0.985825
0.999999
0.000173761
0.993753
0.832488
0.727472
0.999972
3.68266e-05
1
0.826593
5.86677e-06
1
0.505329
0.000380662
0.983435
0.638869
0.648083
1
1
1
1
1
1
0.00326511
0.999971
0.999608
0.970797
0.970806
0.970806
0.999988
2.50256e-05
3.66527e-05
0.916015
1
1
1
1
1
0.208351
0.00130707
0.942348
1
0.999997
0.831881
1
1
1
1
1
1
1
0.999997
0.159761
2.5741e-05
0.970806
0.0015274
1
0.970786
1
0.969549
0.995366
0.970797
0.000796256
0.950077
0.397457
0.70139
0.970806
0.723277
0.948915
1
0.831881
0.000561158
0.999999
0.00252702
0.638612
0.939671
0.000283375
0.939444
1
0.849142
0.343141
0.000723918
0.000406708
1
1
1
0.000670959
0.000717765
0.998976
0.000301769
5.86639e-06
1
5.86646e-06
0.000426122
0.487362
8.57338e-06
0.722585
0.475548
0.957433
1
1.04339e-05
1
1
0.00026704
)
;

boundaryField
{
    patch0
    {
        type            zeroGradient;
    }
}


// ************************************************************************* //
