/*--------------------------------*- C++ -*----------------------------------*\
  =========                 |
  \\      /  F ield         | OpenFOAM: The Open Source CFD Toolbox
   \\    /   O peration     | Website:  https://openfoam.org
    \\  /    A nd           | Version:  8
     \\/     M anipulation  |
\*---------------------------------------------------------------------------*/
FoamFile
{
    version     2.0;
    format      ascii;
    class       volScalarField;
    location    "0.85";
    object      epsilon;
}
// * * * * * * * * * * * * * * * * * * * * * * * * * * * * * * * * * * * * * //

dimensions      [0 2 -3 0 0 0 0];

internalField   nonuniform List<scalar> 
1924
(
0.0342833
0.050068
0.0788071
0.0777122
0.0569862
0.0780206
0.0772522
0.0801788
0.0793984
0.0793635
0.08294
0.0818954
0.0340146
0.0888322
0.0936406
0.0925698
0.036746
0.0877844
0.0293567
0.0937159
0.0215796
0.0475561
0.0387494
0.0932025
0.0474255
0.0576809
0.0705294
0.0689111
0.0689622
0.0771339
0.0398264
0.0475673
0.0220594
0.0370346
0.0705023
0.0394763
0.0497275
0.0721531
0.0761471
0.0394113
0.0551261
0.0278796
0.0533867
0.0366491
0.0719725
0.0667781
0.030461
0.0781202
0.00672358
0.0108557
0.0204498
0.0330896
0.0479806
0.0151852
0.0631774
0.0787439
0.0269366
0.0728142
0.0696218
0.0839629
0.032537
0.0938819
0.0300916
0.0785879
0.0143402
0.0785352
0.0900981
0.0435354
0.0699452
0.021945
0.0275647
0.0929612
0.0772905
0.0768691
0.0734458
0.0341311
0.076198
0.0723682
0.0797041
0.0269026
0.0724924
0.0738817
0.0762248
0.0248237
0.0211569
0.0440786
0.0705783
0.0967727
0.00722219
0.0275892
0.0900179
0.0734469
0.0671578
0.0714204
0.0313701
0.00958636
0.0763885
0.0738295
0.0835836
0.0318196
0.0797222
0.0314864
0.0849168
0.07644
0.0715805
0.0709301
0.0803938
0.065256
0.0800846
0.0747809
0.0749521
0.0770196
0.0711754
0.0789487
0.0785104
0.0185104
0.0793433
0.0910187
0.0475094
0.0751911
0.012085
0.0122556
0.0147386
0.019959
0.0911227
0.0747802
0.0363714
0.0708089
0.0774466
0.027066
0.0741803
0.0802775
0.261423
0.0793905
0.03403
0.07789
0.0778835
0.0784644
0.096505
0.0714039
0.077875
0.0916554
0.150724
0.177272
0.0791976
0.0141025
0.0655604
0.0324434
0.0802934
0.0471111
0.0756127
0.0236859
0.0366622
0.0804244
0.0786119
0.0750065
0.0126637
0.0785173
0.0754275
0.531315
0.0801938
0.040948
0.0797821
0.012586
0.0720357
0.0782186
0.0796217
0.0161235
0.0736706
0.0800586
0.0365817
0.0811219
0.0706428
0.0765445
0.0784626
0.0536461
0.0796441
0.103511
0.0363415
0.081583
0.0722186
0.0924543
0.0746654
0.0799305
0.00482921
0.0445749
0.0383451
0.0771294
0.0735343
0.0801306
0.0616989
0.0808863
0.0747904
0.0816088
0.0820109
0.0248428
0.0803844
0.0503411
0.0648032
0.0467648
0.053524
0.0504956
0.0808953
0.0845437
0.0507977
0.0720288
0.084935
0.0392585
0.0350622
0.210982
0.0133934
0.0808895
0.100306
0.0823551
0.0771685
0.071069
0.0731028
0.0611822
0.0851719
0.0703823
0.0712962
0.0746352
0.0813661
0.100126
0.0841397
0.0805617
0.0759178
0.0708163
0.0834871
0.0486585
0.174401
0.0885506
0.0641708
0.131533
0.0827344
0.704411
0.100504
0.0899465
0.0821615
0.0262121
0.0937413
0.064276
0.098981
0.0408813
0.378358
0.0356444
0.0905521
0.0769139
0.0724547
0.070685
0.0509129
0.0168591
0.0837906
0.0814243
0.0730296
0.100415
0.0566736
0.0558345
0.071285
0.0908357
0.0772167
0.0826637
0.0759927
0.071455
0.0475636
0.0717965
0.0253122
0.0703887
0.0604437
0.0690487
0.0483593
0.0756862
0.0359753
0.0617867
0.0888088
0.0719074
0.090269
0.0829645
0.0809889
0.0566867
0.0264179
0.0375562
0.089086
0.085286
0.0119578
0.0771558
0.0750739
0.0213147
0.0944086
0.0635805
0.0834846
0.0750502
0.0845997
0.101229
0.0114763
0.0724914
0.0987187
0.041911
0.0702082
0.100807
0.0386757
0.08176
0.0989621
0.0734762
0.0951383
0.0673248
0.0266326
0.0938558
0.0541511
0.0761205
0.0377686
0.0437538
0.0854621
0.0481497
0.0738619
0.0302378
0.0773457
0.0951764
0.0838161
0.0806666
0.0729762
0.0484183
0.0819401
0.0751556
0.0712712
0.0702462
0.0705829
0.0609371
0.0770312
0.0785875
0.0552916
0.0902015
0.048233
0.0950157
0.0706222
0.0848419
0.0863276
0.0862451
0.08759
0.0833161
0.070591
0.078027
0.0471719
0.0436808
0.0981606
0.0919946
0.178256
0.0907214
0.0418888
0.066565
0.0494758
0.300536
0.244601
0.101314
0.0381604
0.0706358
0.00448101
0.0970155
0.0473349
0.00905164
0.0860733
0.100789
0.0990165
0.0892688
0.0481734
0.0851687
0.0476737
0.0482947
0.0875961
0.0862549
0.0934772
0.0809131
0.0530658
0.09811
0.0634806
0.0721495
0.0995939
0.0932952
0.046979
0.0903787
0.0913771
0.0705537
0.0702612
0.0828095
0.0493505
0.0871714
0.0714977
0.0899151
0.0563264
0.0865848
0.31013
0.047771
0.0753265
0.0903921
0.090058
0.365997
0.0519771
0.0467649
0.0777168
0.0904017
0.0165318
0.0701679
0.0446725
0.0594304
0.0318516
0.0867088
0.0788679
0.0905781
0.0473921
0.0501265
0.0863191
0.0471374
0.0979756
0.0897659
0.0890872
0.0698534
0.0701236
0.101717
0.0471357
0.0754451
0.101178
0.0481698
0.0731569
0.0400689
0.0480335
0.0973808
0.073246
0.075631
0.0472746
0.0635228
0.087533
0.0695688
0.0759992
0.0465926
0.0897259
0.0630361
0.0935993
0.0187836
0.0910839
0.0469323
0.0484478
0.0529109
0.0830949
0.0582603
0.0904254
0.827234
0.0872857
0.0709296
0.0752412
0.0903503
0.0934166
0.0473032
0.0845313
0.0831571
0.052073
0.078796
0.0851997
0.0994896
0.0462426
0.0908205
0.0704788
0.0464296
0.0320172
0.0468563
0.0461103
0.0907722
0.0909783
0.0890212
0.0938187
0.0801842
0.050222
0.0463806
0.0737003
0.0793238
0.0486398
0.0710685
0.0767923
0.097456
0.0903852
0.0903998
0.0876629
0.0917902
0.082566
0.0912566
0.0467279
0.048233
0.0560004
0.0987646
0.0675686
0.0739293
0.0232464
0.0636155
0.0460399
0.0761309
0.0992942
0.0724118
0.0905338
0.0878584
0.053993
0.0745284
0.0972787
0.0989789
0.0475057
0.0464672
0.0402701
0.070865
0.10143
0.0522938
0.0467137
0.0894772
0.0710212
0.0697077
0.0884271
0.0847891
0.0910743
0.0915192
0.0461288
0.0788361
0.0940089
0.0906479
0.0453329
0.101125
0.0690288
0.0856283
0.086211
0.0814173
0.0728927
0.032658
0.0508774
0.0900527
0.0458182
0.098445
0.0459914
0.0420294
0.0464491
0.0918323
0.0912785
0.0485502
0.0352539
0.0479052
0.0463565
0.0769017
0.02719
0.0710369
0.0764341
0.0601208
0.0757639
0.0786285
0.091193
0.0827558
0.0574624
0.0826814
0.0927806
0.0453139
0.0557919
0.0446142
0.0337833
0.0205886
0.0670558
0.0765787
0.0465749
0.044678
0.0456495
0.0833401
0.047551
0.0475888
0.0702919
0.0761541
0.0749269
0.0464549
0.0726803
0.0679359
0.0542627
0.0885699
0.0729937
0.0915968
0.0364641
0.0426046
0.0917765
0.0471529
0.0458757
0.0908801
0.0961456
0.0890158
0.0145202
0.0299116
0.0990439
0.0369996
0.0686384
0.0775477
0.0506885
0.0449642
0.0507472
0.0184244
0.0243867
0.0894546
0.0920514
0.0720071
0.0921924
0.0440245
0.00924866
0.0989749
0.0899585
0.0779261
0.0454493
0.0966593
0.0815346
0.0715808
0.0485173
0.0355438
0.0481439
0.0988356
0.0372197
0.0732855
0.0458818
0.0914593
0.0864143
0.0476913
0.0127107
0.0777254
0.079938
0.0685919
0.0773703
0.0462729
0.092766
0.0741397
0.0324815
0.091929
0.0834171
0.0420618
0.091833
0.0600248
0.0714802
0.0420407
0.045076
0.0100971
0.0581382
0.0591094
0.0615513
0.0770255
0.0747563
0.0834338
0.0459703
0.0539063
0.0693719
0.100756
0.0458439
0.0994398
0.064603
0.0480385
0.0428604
0.0838677
0.0778987
0.0875848
0.0329378
0.0888809
0.042485
0.0722863
0.0511579
0.0440749
0.0476572
0.0287016
0.0733124
0.0700518
0.0893499
0.0774193
0.0477632
0.0917575
0.0437602
0.0455295
0.0456375
0.0700594
0.0245842
0.0744534
0.100325
0.068771
0.0950019
0.0950051
0.0230922
0.035798
0.091696
0.092432
0.0925956
0.0927232
0.0465131
0.0922499
0.0919984
0.0275658
0.0816097
0.0304243
0.0789774
0.0902036
0.07697
0.0551548
0.0419477
0.0982981
0.036645
0.0730475
0.0458716
0.0458303
0.0681519
0.0401223
0.0600828
0.0419191
0.0175481
0.0624792
0.0751416
0.0539101
0.0801445
0.0445416
0.0430965
0.0252933
0.0760503
0.0212874
0.0494804
0.0835329
0.0838924
0.0405607
0.0979815
0.0088793
0.0739244
0.0933021
0.0717659
0.0317645
0.0939593
0.0469682
0.160928
0.0124729
0.047657
0.0718052
0.0844372
0.0419106
0.0729666
0.0455062
0.0931522
0.0480139
0.0924884
0.0658626
0.0930355
0.0399317
0.0197856
0.0891916
0.0694579
0.027085
0.0802984
0.201973
0.0451917
0.0323745
0.0441396
0.070459
0.0464776
0.0704445
0.0963698
0.0746958
0.0755678
0.0877585
0.0771445
0.0142805
0.0167776
0.0938776
0.0772775
0.0897487
0.0988545
0.0673305
0.0461021
0.0352003
0.0499013
0.0455466
0.0271111
0.0558509
0.0943243
0.0531879
0.0668873
0.0767134
0.0440635
0.0822918
0.0449094
0.0492758
0.0289312
0.0724723
0.0367975
0.073389
0.0928658
0.045182
0.0979894
0.0773142
0.0978224
0.0630838
0.092056
0.0763012
0.0362552
0.0398269
0.0919807
0.07784
0.045502
0.0678259
0.081536
0.00917427
0.0652462
0.0410937
0.0284511
0.0484976
0.0471523
0.077172
0.0722038
0.0999413
0.0762887
0.0942915
0.0846565
0.0455454
0.0774298
0.0726708
0.0722205
0.0364472
0.0426456
0.0317604
0.0943601
0.0211686
0.0466967
0.0478584
0.0384716
0.0885872
0.0966705
0.0215726
0.0923875
0.0719797
0.0453906
0.0935096
0.085374
0.0323315
0.0968827
0.0707007
0.0439755
0.0500203
0.0462082
0.0490278
0.0741045
0.0948971
0.0673568
0.034591
0.0800617
0.0341194
0.0540399
0.0474054
0.00477391
0.0390072
0.0581495
0.0458121
0.0954078
0.0403724
0.0949095
0.0897146
0.0253177
0.0733136
0.0958959
0.0735551
0.0385075
0.0449229
0.0176434
0.0774556
0.0939878
0.0964311
0.0753081
0.0771009
0.0357977
0.0788208
0.0173752
0.0471391
0.0268979
0.0347569
0.0673519
0.0418896
0.0324968
0.0922539
0.0454207
0.0769206
0.0716053
0.0338115
0.0137402
0.0658546
0.0771536
0.0434256
0.0952997
0.0772361
0.0685594
0.0465567
0.0802047
0.0853252
0.0903052
0.0928632
0.0455929
0.0694903
0.0182594
0.0946742
0.0827468
0.0821893
0.0726971
0.0967575
0.0364993
0.0991187
0.0315541
0.0772986
0.0446222
0.0135575
0.047652
0.0464378
0.0899216
0.0173545
0.0514806
0.0898335
0.0497575
0.0767963
0.0724797
0.0442395
0.0141651
0.0858508
0.0187731
0.0472515
0.0453329
0.0767899
0.0776921
0.0984554
0.0461035
0.0186967
0.0674976
0.0329132
0.0702222
0.0887489
0.0953899
0.0574692
0.0455767
0.0963829
0.046648
0.0388476
0.0764371
0.0426129
0.0956473
0.041094
0.0624457
0.0866565
0.0756706
0.0393091
0.0674153
0.0128676
0.0354939
0.0729047
0.0458505
0.0780799
0.0262804
0.0986456
0.0362514
0.0466473
0.327803
0.0431109
0.0938076
0.0325434
0.0338039
0.112098
0.0278603
0.0968046
0.0365614
0.0685082
0.0443878
0.0997657
0.0155163
0.0812569
0.0945607
0.046682
0.0484126
0.0154682
0.0743519
0.0453206
0.0771875
0.0477321
0.0985234
0.0768244
0.0657869
0.0523172
0.0924733
0.0409888
0.0978453
0.0543779
0.0343129
0.0458233
0.0466198
0.0901081
0.046457
0.0700956
0.075477
0.0401327
0.048418
0.0824875
0.0691417
0.0459578
0.0423913
0.0762883
0.0376587
0.094181
0.0949072
0.0320565
0.0466228
0.0189529
0.0363849
0.0964257
0.0441097
0.0455473
0.0993051
0.0846095
0.0726453
0.0630101
0.0460528
0.0207142
0.0980796
0.0730613
0.0723422
0.0672892
0.0750855
0.0632617
0.0450692
0.0469008
0.0811947
0.0911824
0.0808763
0.026288
0.0750212
0.0731084
0.078478
0.0456834
0.0868029
0.0799671
0.0783714
0.0279867
0.0344317
0.067351
0.0927695
0.0131397
0.0133259
0.0460301
0.0917482
0.0715869
0.0468312
0.0316023
0.0989077
0.0981402
0.0904695
0.0975416
0.0467117
0.0677924
0.0495803
0.0487497
0.0791892
0.0461051
0.0868244
0.0277385
0.0465038
0.0711526
0.0980523
0.0466142
0.0871401
0.0872167
0.0424992
0.0557219
0.0314339
0.0437808
0.0751835
0.029586
0.0737522
0.0969672
0.0467954
0.0682225
0.0155272
0.099062
0.0168219
0.0463377
0.0446646
0.0584341
0.0827187
0.0352756
0.0953996
0.0450621
0.0469483
0.283807
0.073123
0.0455662
0.0085054
0.0294394
0.0398754
0.0719044
0.0697819
0.0986161
0.0601426
0.0460909
0.0939788
0.285168
0.280737
0.0471129
0.0742877
0.097026
0.0717255
0.0828489
0.0217197
0.0439123
0.0463326
0.0334205
0.285097
0.0468862
0.00648933
0.0310242
0.0501866
0.0920923
0.0467142
0.0235647
0.0906274
0.048823
0.0576577
0.09825
0.0304553
0.046821
0.0720377
0.0445793
0.0465453
0.051296
0.0290009
0.0959938
0.071618
0.0667466
0.0442242
0.0772769
0.0448419
0.285177
0.0725008
0.0942529
0.0886142
0.0976356
0.0448559
0.0426092
0.0467529
0.0668378
0.0671127
0.0144512
0.04553
0.0954241
0.0546495
0.0134511
0.0282068
0.0465234
0.277498
0.0477265
0.0460744
0.277488
0.013817
0.0757586
0.0675385
0.0978481
0.0924001
0.0916991
0.0780182
0.028323
0.0853383
0.0444269
0.0647035
0.057119
0.0583608
0.274388
0.0474885
0.0309335
0.0183223
0.0678804
0.0709847
0.0462762
0.0784363
0.0377926
0.0295875
0.0204623
0.0992308
0.0921619
0.0693574
0.068854
0.0802457
0.0903481
0.0881081
0.0266386
0.0950807
0.0337774
0.0558565
0.0430202
0.0366078
0.0469683
0.0472982
0.0462771
0.270338
0.0435331
0.0469323
0.0712617
0.275081
0.0888398
0.0148221
0.0464565
0.0437502
0.0265664
0.0845327
0.0927009
0.0693387
0.042182
0.080618
0.0435609
0.0478387
0.0171705
0.0712885
0.0879584
0.0433473
0.0837878
0.0246078
0.0954804
0.0429078
0.0260077
0.0882886
0.0466757
0.066072
0.0343668
0.0566434
0.0507005
0.0478945
0.0444041
0.0335353
0.0935281
0.0261516
0.0247222
0.00732693
0.264913
0.0660532
0.0476008
0.0519814
0.0699464
0.0869784
0.0851279
0.087545
0.038624
0.0783129
0.0413495
0.0829931
0.0863493
0.0705267
0.0185329
0.0164691
0.0916532
0.044693
0.0606671
0.0422877
0.0832679
0.0587943
0.0427842
0.0858869
0.0429185
0.0819378
0.273941
0.0664978
0.028242
0.0311107
0.0630742
0.0840938
0.0423055
0.0644029
0.0216704
0.047258
0.0256446
0.0252725
0.0430644
0.0386683
0.0703918
0.0459996
0.0668446
0.0218252
0.0221922
0.0701548
0.0476728
0.0929583
0.0461371
0.0303242
0.0234649
0.00722977
0.078519
0.0761742
0.0450742
0.0830906
0.258932
0.0468917
0.0858898
0.0617956
0.0479023
0.075783
0.0437283
0.0800555
0.0153499
0.0667094
0.0253706
0.0765855
0.0865472
0.0512155
0.0450749
0.565377
0.0474519
0.0483218
0.0143625
0.0853016
0.0725691
0.0706125
0.0757187
0.57063
0.0359092
0.0758046
0.0716938
0.571605
0.00862786
0.0479005
0.0651971
0.0786015
0.0212648
0.0746449
0.0613681
0.0221837
0.0745829
0.0693727
0.0710739
0.0441206
0.0531432
0.55831
0.0732088
0.0653268
0.0197992
0.0720495
0.0863322
0.0235002
0.0554198
0.0498616
0.0276647
0.0659704
0.0265536
0.0851301
0.566934
0.56129
0.0185663
0.0301415
0.0642282
0.0646512
0.0545316
0.0671203
0.0585202
0.0671459
0.0456715
0.0749656
0.0745829
0.0222334
0.553099
0.0611908
0.0743967
0.253835
0.020091
0.0313224
0.020751
0.0163296
0.0608422
0.0193263
0.0473501
0.0817136
0.0457137
0.0653322
0.0835262
0.0563021
0.0475248
0.0482744
0.552102
0.553869
0.0870614
0.0743722
0.0139387
0.545176
0.0456611
0.0179937
0.0477455
0.104463
0.0222499
0.109592
0.0597948
0.0549324
0.0166996
0.0210537
0.111582
0.0776487
0.0317388
0.0624487
0.048846
0.262833
0.108283
0.0587762
0.102007
0.0662556
0.0143536
0.0970262
0.0446634
0.0107351
0.0583397
0.0637854
0.039343
0.534812
0.116427
0.0469454
0.0231175
0.0559
0.0462714
0.0650274
0.0485392
0.0659543
0.0532072
0.0487915
0.0495863
0.0905644
0.0658774
0.0273938
0.0585737
0.0656298
0.0496465
0.0243529
0.0456591
0.0720801
0.0133696
0.101344
0.075344
0.0678348
0.0511541
0.0463698
0.0557299
0.0202975
0.0562351
0.0533579
0.52387
0.0658262
0.0725521
0.0208944
0.217996
0.0692557
0.0559087
0.0662452
0.0732022
0.0493238
0.0716053
0.0460888
0.0469302
0.0578111
0.0510733
0.0787631
0.251939
0.0635692
0.0643568
0.078545
0.102174
0.0655422
0.0451508
0.0475386
0.0497289
0.046511
0.0453769
0.064756
0.0505067
0.534652
0.0453096
0.069655
0.0451481
0.0777157
0.047614
0.0656985
0.0139259
0.0765744
0.0112801
0.0793787
0.0205744
0.0505635
0.0393031
0.220529
0.208487
0.512117
0.049147
0.0325766
0.0445332
0.0536791
0.011222
0.0554446
0.0848257
0.0111994
0.0475788
0.0645503
0.0684193
0.0141758
0.0656447
0.0655236
0.0466417
0.0492511
0.0193119
0.0460933
0.0445402
0.0537931
0.0452349
0.0490388
0.0200907
0.0684802
0.107588
0.0483476
0.0445877
0.0676579
0.0463891
0.0106858
0.161863
0.0671426
0.0894701
0.151754
0.0499405
0.145331
0.0468391
0.070939
0.146766
0.0504444
0.204806
0.152012
0.0449152
0.0669419
0.0484567
0.154219
0.158042
0.0473539
0.0485067
0.045545
0.0715261
0.0470497
0.0442068
0.0665595
0.0431175
0.023353
0.0223572
0.176557
0.0494063
0.0531397
0.0499173
0.233476
0.0444727
0.0264494
0.224523
0.0458486
0.0482552
0.229135
0.0512634
0.022456
0.0114403
0.171844
0.237578
0.0508991
0.095307
0.0672779
0.0449258
0.046337
0.0657215
0.0473351
0.145894
0.11073
0.0533018
0.0504758
0.0845955
0.0734293
0.113045
0.044941
0.0461374
0.0364826
0.428563
0.422188
0.202927
0.0234238
0.0680636
0.0720487
0.0479687
0.0497322
0.0718644
0.066638
0.0498044
0.07205
0.0458211
0.0795878
0.0679087
0.0664651
0.0495838
0.0488391
0.0638042
0.179891
0.0733057
0.0225184
0.331026
0.019953
0.0656062
0.0473918
0.0460385
0.0509522
0.411647
0.0528939
0.0291967
0.0463904
0.24178
0.046699
0.0693143
0.0697795
0.0501439
0.0640816
0.0492119
0.239989
0.0500461
0.497939
0.491229
0.0688868
0.0851587
0.0536307
0.230531
0.0465379
0.0659117
0.0474646
0.0701322
0.0536955
0.0678624
0.00832302
0.0690404
0.192407
0.0900618
0.0472646
0.472895
0.0917368
0.0675434
0.0503276
0.0522978
0.444621
0.050215
0.405803
0.204504
0.0702181
0.0666672
0.453995
0.227844
0.0505253
0.463654
0.0708675
0.0485084
0.0342795
0.0482172
0.0674185
0.0480393
0.232774
0.0474868
0.0660276
0.081373
0.0739751
0.0684008
0.0078643
0.0537867
0.0662525
0.0659203
0.06395
0.0491225
0.0539509
0.47816
0.0657646
0.0692925
0.050829
0.0644509
0.0505251
0.0661768
0.0206901
0.0230556
0.0498154
0.0650703
0.066296
0.01742
0.0449288
0.197497
0.405707
0.0691153
0.0683552
0.190963
0.0671744
0.118925
0.205355
0.049725
0.0510553
0.0509107
0.047802
0.462938
0.45785
0.0466397
0.224602
0.203827
0.185491
0.0510492
0.0186837
0.051204
0.0689884
0.0488599
0.0153869
0.0175673
0.0693388
0.0511412
0.0663995
0.242923
0.483493
0.0692211
0.0654397
0.0542539
0.0665514
0.0464404
0.0666689
0.0662712
0.182366
0.45141
0.0499439
0.236528
0.0465962
0.387604
0.066088
0.40268
0.20836
0.412902
0.0686032
0.468566
0.0692391
0.224329
0.0509315
0.068057
0.373688
0.179284
0.0513364
0.106933
0.1071
0.197906
0.0683547
0.0778659
0.0689441
0.364678
0.0499043
0.0691473
0.0668799
0.447668
0.495006
0.245995
0.246827
0.209018
0.229299
0.415897
0.355453
0.0673415
0.0700607
0.0682529
0.0475806
0.452291
0.33432
0.169077
0.0489763
0.0706826
0.0698002
0.0487697
0.0679765
0.0687373
0.0499324
0.456024
0.233982
0.0506181
0.478049
0.230484
0.45787
0.2292
0.0670614
0.0695531
0.012453
0.00698049
0.265915
0.00671631
0.215833
0.0193783
0.226253
0.127397
0.420321
0.116728
0.206996
0.20653
0.134738
0.245593
0.216475
0.116242
0.233588
0.462338
0.489815
0.45966
0.231034
0.471211
0.239754
0.446327
0.276445
0.27749
0.143421
0.27069
0.260579
0.137934
0.486454
0.0673017
0.0748205
0.0701537
0.0683729
0.0693354
0.0413611
0.0676507
0.020759
0.0165223
0.0171937
0.0553542
0.0164753
0.048119
0.0074748
0.0172527
0.0383743
0.0158162
0.0732474
0.0183099
0.0471524
0.0479902
0.0446593
0.0474799
0.00446577
0.0251237
0.0486802
0.0522813
0.0152869
0.0465176
0.0213281
0.0412677
0.0383559
0.0306002
0.0183964
0.0492044
0.017859
0.0223672
0.02027
0.0566463
0.0394821
0.0164666
0.019604
0.0089916
0.0104533
0.0451455
0.0475868
0.0473549
0.0216146
0.0456423
0.0416924
0.0176469
0.0192378
0.0530941
0.0175302
0.0719594
0.00929133
0.00426829
0.0141216
0.0167301
0.0196663
0.0119413
0.0208786
0.0138814
0.0136598
0.0126741
0.0116232
0.0135148
0.0570521
0.0483522
0.00609471
0.072165
0.0228442
0.0141135
0.0287507
0.00529541
0.0139635
0.0163352
0.0485017
0.00584356
0.0199758
0.0153762
0.0121159
0.0131307
0.00708039
0.00801119
0.012105
0.0794919
0.0111553
0.0485752
0.0434123
0.0060076
0.0914835
0.0054585
0.0240831
0.0147105
0.0216915
0.0487887
0.0963355
0.00413538
0.00748967
0.0150625
0.048797
0.0797991
0.00825259
0.0868255
0.0488531
0.0137799
0.0488337
0.087033
0.0137812
0.048156
0.0144699
0.0101299
0.00866898
0.0174755
0.0482984
0.0139364
0.0227576
0.0918315
)
;

boundaryField
{
    patch0
    {
        type            epsilonWallFunction;
        value           nonuniform List<scalar> 
4010
(
0.0342833
0.0342833
0.050068
0.050068
0.0788071
0.0788071
0.0777122
0.0777122
0.0569862
0.0569862
0.0780206
0.0780206
0.0772522
0.0772522
0.0801788
0.0801788
0.0793984
0.0793984
0.0793635
0.0793635
0.08294
0.08294
0.0818954
0.0818954
0.0340146
0.0340146
0.0888322
0.0888322
0.0936406
0.0936406
0.0925698
0.0925698
0.036746
0.036746
0.0877844
0.0877844
0.0293567
0.0293567
0.0937159
0.0937159
0.0215796
0.0215796
0.0475561
0.0475561
0.0387494
0.0387494
0.0932025
0.0932025
0.0474255
0.0474255
0.0576809
0.0576809
0.0705294
0.0705294
0.0689111
0.0689111
0.0689622
0.0689622
0.0771339
0.0771339
0.0398264
0.0398264
0.0475673
0.0475673
0.0220594
0.0220594
0.0370346
0.0370346
0.0705023
0.0705023
0.0394763
0.0394763
0.0497275
0.0497275
0.0721531
0.0721531
0.0761471
0.0761471
0.0394113
0.0394113
0.0551261
0.0551261
0.0278796
0.0278796
0.0533867
0.0533867
0.0366491
0.0366491
0.0719725
0.0719725
0.0667781
0.0667781
0.030461
0.030461
0.0781202
0.0781202
0.00672358
0.00672358
0.0108557
0.0108557
0.0204498
0.0204498
0.0330896
0.0330896
0.0479806
0.0479806
0.0151852
0.0151852
0.0631774
0.0631774
0.0787439
0.0787439
0.0269366
0.0269366
0.0728142
0.0728142
0.0696218
0.0696218
0.0839629
0.0839629
0.032537
0.032537
0.0938819
0.0938819
0.0300916
0.0300916
0.0785879
0.0785879
0.0143402
0.0143402
0.0785352
0.0785352
0.0900981
0.0900981
0.0435354
0.0435354
0.0699452
0.0699452
0.021945
0.021945
0.0275647
0.0275647
0.0929612
0.0929612
0.0772905
0.0772905
0.0768691
0.0768691
0.0734458
0.0734458
0.0341311
0.0341311
0.076198
0.076198
0.0723682
0.0723682
0.0797041
0.0797041
0.0269026
0.0269026
0.0724924
0.0724924
0.0738817
0.0738817
0.0762248
0.0762248
0.0248237
0.0248237
0.0211569
0.0211569
0.0440786
0.0440786
0.0705783
0.0705783
0.0967727
0.0967727
0.00722219
0.00722219
0.0275892
0.0275892
0.0900179
0.0900179
0.0734469
0.0734469
0.0671578
0.0671578
0.0714204
0.0714204
0.0313701
0.0313701
0.00958636
0.00958636
0.0763885
0.0763885
0.0738295
0.0738295
0.0835836
0.0835836
0.0318196
0.0318196
0.0797222
0.0797222
0.0314864
0.0314864
0.0849168
0.0849168
0.07644
0.07644
0.0715805
0.0715805
0.0709301
0.0709301
0.0803938
0.0803938
0.065256
0.065256
0.0800846
0.0800846
0.0747809
0.0747809
0.0749521
0.0749521
0.0770196
0.0770196
0.0711754
0.0711754
0.0789487
0.0789487
0.0785104
0.0785104
0.0185104
0.0185104
0.0793433
0.0793433
0.0910187
0.0910187
0.0475094
0.0475094
0.0751911
0.0751911
0.012085
0.012085
0.0122556
0.0122556
0.0147386
0.0147386
0.019959
0.019959
0.0911227
0.0911227
0.0747802
0.0747802
0.0363714
0.0363714
0.0708089
0.0708089
0.0774466
0.0774466
0.027066
0.027066
0.0741803
0.0741803
0.0802775
0.0802775
0.261423
0.261423
0.0793905
0.0793905
0.03403
0.03403
0.07789
0.07789
0.0778835
0.0778835
0.0784644
0.0784644
0.096505
0.096505
0.0714039
0.0714039
0.077875
0.077875
0.0916554
0.0916554
0.150724
0.150724
0.150724
0.177272
0.177272
0.177272
0.0791976
0.0791976
0.0141025
0.0141025
0.0655604
0.0655604
0.0324434
0.0324434
0.0802934
0.0802934
0.0471111
0.0471111
0.0756127
0.0756127
0.0236859
0.0236859
0.0236859
0.0366622
0.0366622
0.0804244
0.0804244
0.0786119
0.0786119
0.0750065
0.0750065
0.0126637
0.0126637
0.0785173
0.0785173
0.0754275
0.0754275
0.531315
0.531315
0.0801938
0.0801938
0.040948
0.040948
0.0797821
0.0797821
0.012586
0.012586
0.0720357
0.0720357
0.0782186
0.0782186
0.0796217
0.0796217
0.0161235
0.0161235
0.0736706
0.0736706
0.0800586
0.0800586
0.0365817
0.0365817
0.0811219
0.0811219
0.0706428
0.0706428
0.0765445
0.0765445
0.0784626
0.0784626
0.0536461
0.0536461
0.0796441
0.0796441
0.103511
0.103511
0.0363415
0.0363415
0.081583
0.081583
0.0722186
0.0722186
0.0924543
0.0924543
0.0746654
0.0746654
0.0799305
0.0799305
0.00482921
0.00482921
0.0445749
0.0445749
0.0383451
0.0383451
0.0771294
0.0771294
0.0735343
0.0735343
0.0801306
0.0801306
0.0616989
0.0616989
0.0808863
0.0808863
0.0747904
0.0747904
0.0816088
0.0816088
0.0820109
0.0820109
0.0248428
0.0248428
0.0248428
0.0803844
0.0803844
0.0503411
0.0503411
0.0648032
0.0648032
0.0467648
0.0467648
0.053524
0.053524
0.0504956
0.0504956
0.0808953
0.0808953
0.0845437
0.0845437
0.0507977
0.0507977
0.0720288
0.0720288
0.084935
0.084935
0.0392585
0.0392585
0.0350622
0.0350622
0.210982
0.210982
0.210982
0.0133934
0.0133934
0.0808895
0.0808895
0.100306
0.100306
0.0823551
0.0823551
0.0771685
0.0771685
0.071069
0.071069
0.0731028
0.0731028
0.0611822
0.0611822
0.0851719
0.0851719
0.0703823
0.0703823
0.0712962
0.0712962
0.0746352
0.0746352
0.0813661
0.0813661
0.100126
0.100126
0.0841397
0.0841397
0.0805617
0.0805617
0.0759178
0.0759178
0.0708163
0.0708163
0.0834871
0.0834871
0.0486585
0.0486585
0.174401
0.174401
0.0885506
0.0885506
0.0641708
0.0641708
0.131533
0.131533
0.0827344
0.0827344
0.704411
0.704411
0.704411
0.100504
0.100504
0.0899465
0.0899465
0.0821615
0.0821615
0.0262121
0.0262121
0.0262121
0.0937413
0.0937413
0.064276
0.064276
0.098981
0.098981
0.0408813
0.0408813
0.378358
0.378358
0.0356444
0.0356444
0.0905521
0.0905521
0.0769139
0.0769139
0.0724547
0.0724547
0.070685
0.070685
0.0509129
0.0509129
0.0168591
0.0168591
0.0837906
0.0837906
0.0814243
0.0814243
0.0730296
0.0730296
0.100415
0.100415
0.0566736
0.0566736
0.0558345
0.0558345
0.071285
0.071285
0.0908357
0.0908357
0.0772167
0.0772167
0.0826637
0.0826637
0.0759927
0.0759927
0.071455
0.071455
0.0475636
0.0475636
0.0717965
0.0717965
0.0253122
0.0253122
0.0703887
0.0703887
0.0604437
0.0604437
0.0690487
0.0690487
0.0483593
0.0483593
0.0756862
0.0756862
0.0359753
0.0359753
0.0617867
0.0617867
0.0888088
0.0888088
0.0719074
0.0719074
0.090269
0.090269
0.0829645
0.0829645
0.0809889
0.0809889
0.0566867
0.0566867
0.0264179
0.0264179
0.0375562
0.0375562
0.0375562
0.089086
0.089086
0.085286
0.085286
0.0119578
0.0119578
0.0771558
0.0771558
0.0750739
0.0750739
0.0213147
0.0213147
0.0944086
0.0944086
0.0635805
0.0635805
0.0834846
0.0834846
0.0750502
0.0750502
0.0845997
0.0845997
0.101229
0.101229
0.0114763
0.0114763
0.0724914
0.0724914
0.0987187
0.0987187
0.041911
0.041911
0.0702082
0.0702082
0.100807
0.100807
0.0386757
0.0386757
0.0386757
0.08176
0.08176
0.0989621
0.0989621
0.0734762
0.0734762
0.0951383
0.0951383
0.0673248
0.0673248
0.0266326
0.0266326
0.0938558
0.0938558
0.0541511
0.0541511
0.0761205
0.0761205
0.0377686
0.0377686
0.0437538
0.0437538
0.0854621
0.0854621
0.0481497
0.0481497
0.0738619
0.0738619
0.0302378
0.0302378
0.0773457
0.0773457
0.0951764
0.0951764
0.0838161
0.0838161
0.0806666
0.0806666
0.0729762
0.0729762
0.0484183
0.0484183
0.0819401
0.0819401
0.0751556
0.0751556
0.0712712
0.0712712
0.0702462
0.0702462
0.0705829
0.0705829
0.0609371
0.0609371
0.0770312
0.0770312
0.0785875
0.0785875
0.0552916
0.0552916
0.0902015
0.0902015
0.048233
0.048233
0.0950157
0.0950157
0.0706222
0.0706222
0.0848419
0.0848419
0.0863276
0.0863276
0.0862451
0.0862451
0.08759
0.08759
0.0833161
0.0833161
0.070591
0.070591
0.078027
0.078027
0.0471719
0.0471719
0.0436808
0.0436808
0.0981606
0.0981606
0.0919946
0.0919946
0.178256
0.178256
0.0907214
0.0907214
0.0418888
0.0418888
0.066565
0.066565
0.0494758
0.0494758
0.300536
0.300536
0.244601
0.244601
0.101314
0.101314
0.0381604
0.0381604
0.0706358
0.0706358
0.00448101
0.00448101
0.0970155
0.0970155
0.0473349
0.0473349
0.00905164
0.00905164
0.0860733
0.0860733
0.100789
0.100789
0.0990165
0.0990165
0.0892688
0.0892688
0.0481734
0.0481734
0.0851687
0.0851687
0.0476737
0.0476737
0.0482947
0.0482947
0.0875961
0.0875961
0.0862549
0.0862549
0.0934772
0.0934772
0.0809131
0.0809131
0.0530658
0.0530658
0.09811
0.09811
0.0634806
0.0634806
0.0721495
0.0721495
0.0995939
0.0995939
0.0932952
0.0932952
0.046979
0.046979
0.0903787
0.0903787
0.0913771
0.0913771
0.0705537
0.0705537
0.0702612
0.0702612
0.0828095
0.0828095
0.0493505
0.0493505
0.0871714
0.0871714
0.0714977
0.0714977
0.0899151
0.0899151
0.0563264
0.0563264
0.0865848
0.0865848
0.31013
0.31013
0.047771
0.047771
0.0753265
0.0753265
0.0903921
0.0903921
0.090058
0.090058
0.365997
0.365997
0.365997
0.0519771
0.0519771
0.0467649
0.0467649
0.0777168
0.0777168
0.0904017
0.0904017
0.0165318
0.0165318
0.0701679
0.0701679
0.0446725
0.0446725
0.0594304
0.0594304
0.0318516
0.0318516
0.0318516
0.0867088
0.0867088
0.0788679
0.0788679
0.0905781
0.0905781
0.0473921
0.0473921
0.0501265
0.0501265
0.0863191
0.0863191
0.0471374
0.0471374
0.0979756
0.0979756
0.0897659
0.0897659
0.0890872
0.0890872
0.0698534
0.0698534
0.0701236
0.0701236
0.101717
0.101717
0.0471357
0.0471357
0.0754451
0.0754451
0.101178
0.101178
0.0481698
0.0481698
0.0731569
0.0731569
0.0400689
0.0400689
0.0480335
0.0480335
0.0973808
0.0973808
0.073246
0.073246
0.075631
0.075631
0.0472746
0.0472746
0.0635228
0.0635228
0.087533
0.087533
0.0695688
0.0695688
0.0759992
0.0759992
0.0465926
0.0465926
0.0897259
0.0897259
0.0630361
0.0630361
0.0935993
0.0935993
0.0187836
0.0187836
0.0910839
0.0910839
0.0469323
0.0469323
0.0484478
0.0484478
0.0529109
0.0529109
0.0830949
0.0830949
0.0582603
0.0582603
0.0904254
0.0904254
0.827234
0.827234
0.827234
0.0872857
0.0872857
0.0709296
0.0709296
0.0752412
0.0752412
0.0903503
0.0903503
0.0934166
0.0934166
0.0473032
0.0473032
0.0845313
0.0845313
0.0831571
0.0831571
0.052073
0.052073
0.078796
0.078796
0.0851997
0.0851997
0.0994896
0.0994896
0.0462426
0.0462426
0.0908205
0.0908205
0.0704788
0.0704788
0.0464296
0.0464296
0.0320172
0.0320172
0.0468563
0.0468563
0.0461103
0.0461103
0.0907722
0.0907722
0.0909783
0.0909783
0.0890212
0.0890212
0.0938187
0.0938187
0.0801842
0.0801842
0.050222
0.050222
0.0463806
0.0463806
0.0737003
0.0737003
0.0793238
0.0793238
0.0486398
0.0486398
0.0710685
0.0710685
0.0767923
0.0767923
0.097456
0.097456
0.0903852
0.0903852
0.0903998
0.0903998
0.0876629
0.0876629
0.0917902
0.0917902
0.082566
0.082566
0.0912566
0.0912566
0.0467279
0.0467279
0.048233
0.048233
0.0560004
0.0560004
0.0987646
0.0987646
0.0675686
0.0675686
0.0739293
0.0739293
0.0232464
0.0232464
0.0636155
0.0636155
0.0460399
0.0460399
0.0761309
0.0761309
0.0992942
0.0992942
0.0724118
0.0724118
0.0905338
0.0905338
0.0878584
0.0878584
0.053993
0.053993
0.0745284
0.0745284
0.0972787
0.0972787
0.0989789
0.0989789
0.0475057
0.0475057
0.0464672
0.0464672
0.0402701
0.0402701
0.070865
0.070865
0.10143
0.10143
0.0522938
0.0522938
0.0467137
0.0467137
0.0894772
0.0894772
0.0710212
0.0710212
0.0697077
0.0697077
0.0884271
0.0884271
0.0847891
0.0847891
0.0910743
0.0910743
0.0915192
0.0915192
0.0461288
0.0461288