/*--------------------------------*- C++ -*----------------------------------*\
  =========                 |
  \\      /  F ield         | OpenFOAM: The Open Source CFD Toolbox
   \\    /   O peration     | Website:  https://openfoam.org
    \\  /    A nd           | Version:  8
     \\/     M anipulation  |
\*---------------------------------------------------------------------------*/
FoamFile
{
    version     2.0;
    format      ascii;
    class       volScalarField;
    location    "0.85";
    object      k;
}
// * * * * * * * * * * * * * * * * * * * * * * * * * * * * * * * * * * * * * //

dimensions      [0 2 -2 0 0 0 0];

internalField   nonuniform List<scalar> 
1924
(
0.0263063
0.0338604
0.04589
0.0454783
0.0370021
0.0455724
0.0452578
0.0463829
0.0460585
0.0460767
0.0473939
0.0469658
0.0262042
0.0495878
0.051536
0.0511491
0.0275857
0.0491731
0.0237575
0.051508
0.0193719
0.0327595
0.0285848
0.0513297
0.0326987
0.0374092
0.042737
0.0418607
0.0419068
0.045218
0.029119
0.0327686
0.0196869
0.0277373
0.0425292
0.0289398
0.033819
0.0432027
0.0448392
0.0289109
0.0362617
0.0229628
0.0354993
0.0275494
0.0431251
0.0411218
0.024325
0.0455843
0.00889304
0.0122462
0.018675
0.0257272
0.0329525
0.015308
0.0396838
0.0458361
0.0224487
0.0434563
0.0421702
0.0479344
0.0254524
0.0516818
0.0241631
0.0457736
0.0147359
0.0457516
0.0502792
0.0309023
0.0423316
0.0195792
0.0227811
0.0513443
0.0452753
0.0451208
0.0438159
0.0263105
0.0448918
0.0433686
0.0462435
0.0224199
0.0433896
0.0440686
0.0448765
0.021268
0.019132
0.0311356
0.0425712
0.0527235
0.0093275
0.0227959
0.0502555
0.0439078
0.0413004
0.0430346
0.0248379
0.0112607
0.0449656
0.0438864
0.0477929
0.0250667
0.0462367
0.0248989
0.0482879
0.0450809
0.0430904
0.0427633
0.0464947
0.0405139
0.0464548
0.044343
0.0443649
0.0451808
0.0428094
0.045917
0.0458028
0.0174863
0.0460944
0.0505618
0.0327332
0.0444941
0.0131586
0.0069798
0.0150123
0.0183696
0.0506943
0.04434
0.0274459
0.0427306
0.045351
0.011234
0.0440428
0.0464495
0.0243648
0.0460954
0.0262162
0.0455532
0.0455065
0.0457334
0.052578
0.0429032
0.0454951
0.050901
0.0143178
0.0160367
0.046033
0.0145566
0.0406267
0.0253927
0.0465399
0.0325521
0.0446468
0.00682205
0.0275642
0.0465049
0.0458064
0.0444288
0.00713409
0.0457518
0.0445105
0.0389541
0.0463996
0.0297931
0.0462587
0.00710444
0.0432206
0.04568
0.0462199
0.00696717
0.0438704
0.0463752
0.0275054
0.0467787
0.0426563
0.0451219
0.0457295
0.0356825
0.0461797
0.0207278
0.0273906
0.0469814
0.043368
0.0510292
0.0442971
0.0463412
0.00712783
0.0312326
0.0284066
0.0452909
0.0437851
0.046399
0.0389809
0.0466727
0.044258
0.0469803
0.0471397
0.00704228
0.0465454
0.0341785
0.0403736
0.0324228
0.0128931
0.0340312
0.0466998
0.0480635
0.0340587
0.0432911
0.0482622
0.028853
0.0267434
0.0175062
0.00740491
0.046685
0.0539745
0.0472731
0.0453062
0.0428178
0.0436729
0.0388155
0.0483259
0.042536
0.0429709
0.0442152
0.0468815
0.0539154
0.0478826
0.046612
0.0446814
0.0427387
0.0477298
0.0332771
0.0232981
0.0496617
0.0401092
0.0223267
0.0474513
0.0390097
0.0540367
0.0501969
0.0471896
0.00729867
0.0514736
0.040165
0.0534829
0.0296519
0.0389172
0.0270381
0.0503126
0.0451741
0.0433904
0.0426901
0.0341565
0.00778434
0.0478448
0.0468906
0.0435805
0.0540039
0.0369559
0.036578
0.0429715
0.0504717
0.0453099
0.0473844
0.0448918
0.0429742
0.032763
0.0431157
0.0215417
0.0425554
0.0384981
0.0152285
0.0331187
0.0446704
0.0272045
0.0391371
0.0497542
0.0431743
0.0501472
0.0475373
0.0467237
0.0369402
0.00880829
0.00739931
0.0498888
0.0484684
0.01306
0.0452393
0.0443566
0.00895193
0.0518841
0.0398795
0.0477439
0.0444211
0.0481691
0.0542888
0.0127221
0.0433826
0.0534012
0.0301284
0.0424689
0.0541261
0.00919265
0.0470338
0.0534573
0.043821
0.0520666
0.0414181
0.0222982
0.051623
0.0358385
0.044782
0.0281023
0.030969
0.0485281
0.0330231
0.0438948
0.0242532
0.0453633
0.0521193
0.0478703
0.0466406
0.0435897
0.033147
0.0471226
0.0444096
0.0430175
0.0425099
0.0427331
0.0387766
0.0452176
0.0457135
0.0363348
0.0503093
0.0330605
0.0519996
0.0426352
0.0482595
0.0488198
0.048864
0.0493925
0.0476781
0.0426642
0.0455507
0.0325797
0.0309691
0.053182
0.050985
0.0225446
0.0505416
0.0300755
0.0411184
0.0336663
0.0317994
0.0367864
0.0543003
0.0282886
0.0426887
0.0067778
0.0528573
0.0326941
0.0108352
0.0487315
0.054105
0.0534709
0.0499197
0.0330438
0.0483731
0.0328041
0.0330934
0.0493839
0.0488679
0.0514792
0.0467362
0.0353269
0.0530715
0.0398355
0.0162734
0.053663
0.0514039
0.0324954
0.0504022
0.0507507
0.042648
0.042605
0.0474685
0.0336166
0.0491568
0.0429783
0.050161
0.0367797
0.0489686
0.0395437
0.0328463
0.0446029
0.0503698
0.0503683
0.0228089
0.0347978
0.0323929
0.0453911
0.0503327
0.0161854
0.0424649
0.03143
0.0380774
0.00534696
0.0489629
0.0459634
0.0504356
0.0327022
0.0339285
0.0488207
0.0325545
0.0531753
0.0501551
0.0499706
0.0422807
0.0424658
0.0544222
0.0325668
0.0445577
0.0542422
0.0330397
0.0437041
0.0292269
0.03298
0.0529022
0.0436533
0.044658
0.0326199
0.0398239
0.0492711
0.0422338
0.044892
0.0323102
0.0502358
0.0396311
0.0515048
0.0176701
0.0507197
0.0324742
0.0331887
0.0351795
0.0475762
0.0375602
0.0503898
0.0391738
0.0491864
0.0427661
0.0445719
0.0503179
0.0514549
0.0326301
0.0481493
0.0475397
0.0348071
0.0459471
0.0484371
0.0536195
0.0321509
0.0505248
0.0426246
0.0322368
0.0251937
0.0324401
0.0321036
0.0504724
0.0505645
0.0499307
0.0517046
0.0464046
0.0339668
0.0322056
0.0438727
0.0461868
0.0332537
0.0428775
0.0450949
0.0530282
0.0503571
0.0503
0.0493221
0.0510358
0.0474046
0.050656
0.0323698
0.0330734
0.0364772
0.0532838
0.0414488
0.04392
0.0203607
0.0398413
0.0320499
0.044816
0.0535733
0.0434514
0.0503916
0.0493955
0.0356358
0.0441567
0.0528624
0.0534117
0.0327426
0.0322626
0.0293162
0.0426803
0.0543169
0.0348762
0.0323569
0.0500206
0.042848
0.0423181
0.0496113
0.0482434
0.0505833
0.0507431
0.0321003
0.0459641
0.0518356
0.0504003
0.031725
0.0542029
0.0420224
0.0485817
0.0488141
0.0469496
0.0435583
0.0255073
0.034267
0.0503249
0.0319689
0.0533546
0.0320249
0.030164
0.0322586
0.0508549
0.0508261
0.0332123
0.0268506
0.032929
0.0321987
0.0451033
0.022568
0.0428513
0.0450909
0.0382144
0.0447133
0.0457883
0.0506253
0.0474067
0.0370948
0.0474528
0.0511144
0.031708
0.0363997
0.0313845
0.0260874
0.0187575
0.041219
0.0450186
0.0323109
0.0314251
0.0320596
0.0477084
0.0327654
0.0327639
0.0425241
0.0448004
0.0443714
0.0322393
0.0435852
0.0415918
0.0357531
0.0496672
0.0436198
0.0507668
0.0274483
0.0304493
0.0508857
0.0325717
0.0319827
0.0504873
0.0525821
0.0498325
0.0148638
0.024054
0.0534665
0.0276929
0.0419167
0.0453519
0.0341727
0.0315452
0.0136629
0.0174158
0.0209843
0.050001
0.0509285
0.0431805
0.0509807
0.0311329
0.0109927
0.05342
0.0502751
0.0455204
0.0317726
0.0527008
0.0469989
0.0430681
0.0331927
0.0269498
0.0330382
0.0533447
0.0278249
0.0436705
0.0319812
0.0507111
0.0488839
0.0328295
0.0136014
0.0454229
0.0464315
0.0418542
0.0452606
0.0321775
0.0513831
0.044036
0.0254143
0.0508581
0.0477175
0.0301906
0.0507904
0.0381991
0.0429809
0.0301694
0.031598
0.011659
0.0373732
0.0379053
0.038818
0.0453178
0.0443263
0.0477445
0.032015
0.0355974
0.0420679
0.0540615
0.0319707
0.0535733
0.0400991
0.0329817
0.0305683
0.0479077
0.0455131
0.0493437
0.0256497
0.0497752
0.0304121
0.0433623
0.0343759
0.0311296
0.0328001
0.0234145
0.0437387
0.0425345
0.049942
0.0453286
0.0328624
0.05078
0.0309781
0.0318118
0.0318695
0.0424101
0.0211327
0.0441253
0.0539007
0.0419916
0.0521855
0.0519054
0.0202639
0.0271168
0.0508449
0.0510907
0.0511118
0.0511651
0.0322909
0.0511717
0.0508975
0.0228325
0.0470719
0.0243332
0.045916
0.0503486
0.0450911
0.0361204
0.030136
0.0531717
0.027536
0.0436673
0.0319705
0.0319689
0.0416686
0.0292417
0.0382157
0.0301139
0.0168725
0.0392137
0.0444673
0.0355458
0.0464903
0.0313472
0.0306671
0.0215356
0.0448055
0.0192088
0.0336352
0.0477643
0.0478943
0.0294778
0.0530497
0.0107013
0.0439937
0.0513461
0.0430982
0.0250433
0.0515235
0.0119829
0.0175255
0.0134314
0.0328075
0.0432266
0.04809
0.0300935
0.0435605
0.031811
0.051317
0.0329715
0.0510735
0.0406233
0.0512665
0.029156
0.0182876
0.049861
0.0421639
0.00824326
0.0463651
0.0324875
0.0316541
0.0253586
0.0311566
0.0426965
0.0322756
0.0425182
0.05266
0.0442282
0.0445781
0.0494015
0.0452534
0.0147068
0.016347
0.0515631
0.0453367
0.0500593
0.0533893
0.0413807
0.032098
0.0268002
0.0338165
0.0318199
0.0225399
0.0364312
0.0516897
0.0352307
0.0411594
0.0450427
0.0311498
0.0473445
0.0315214
0.0335229
0.0235358
0.0433153
0.0275958
0.0437618
0.051381
0.0317932
0.0531297
0.0453531
0.0529401
0.0395022
0.0508862
0.044873
0.0273235
0.0291056
0.0508928
0.0454585
0.0318103
0.0415553
0.0470315
0.0109441
0.0403942
0.0297107
0.0232859
0.0331868
0.0325835
0.0452403
0.0432586
0.0537541
0.0448664
0.0516948
0.0481401
0.0318182
0.0453866
0.0435467
0.0432621
0.0102159
0.0304462
0.0250206
0.0517375
0.0191384
0.0323755
0.0328932
0.0284335
0.0497187
0.0526094
0.0193774
0.0510245
0.043278
0.0317523
0.0514386
0.0483969
0.0253163
0.0525887
0.0426721
0.0310786
0.0338896
0.0321479
0.0334207
0.0440593
0.0519349
0.0414059
0.00540909
0.046277
0.0103293
0.0356423
0.0326984
0.00706923
0.0286953
0.0374048
0.0319598
0.052109
0.0293615
0.0521165
0.0500237
0.0214909
0.0436906
0.0522373
0.0437367
0.0284495
0.0315273
0.0169519
0.0453747
0.05161
0.0525341
0.0444187
0.0452626
0.0270787
0.0458156
0.0167947
0.0325735
0.0223877
0.0265658
0.041398
0.0300859
0.0253662
0.0511377
0.0317619
0.0451793
0.0430205
0.0260519
0.00586982
0.0406698
0.0452195
0.0308171
0.0520728
0.0453292
0.0418247
0.0323116
0.0463323
0.0482724
0.0502403
0.0511967
0.031848
0.0422021
0.00662008
0.0519523
0.0474761
0.0472892
0.043558
0.052582
0.0274395
0.053421
0.0249017
0.0453469
0.0313852
0.0142063
0.0328248
0.0322558
0.0501308
0.0167246
0.0345782
0.0500992
0.0337721
0.0451011
0.0434632
0.00637942
0.0146372
0.0485534
0.0176095
0.0326303
0.0317198
0.0450861
0.0454797
0.053181
0.0320956
0.0175785
0.0414454
0.0256026
0.0424905
0.0497721
0.0522562
0.0371719
0.0318367
0.0524549
0.0323524
0.0286087
0.0448675
0.0304597
0.0522079
0.0296977
0.039273
0.0488508
0.0446307
0.00743292
0.0414214
0.0137152
0.0108366
0.0434875
0.0319732
0.0455165
0.0220275
0.0532573
0.0273156
0.0323532
0.0282755
0.0306652
0.0515577
0.0063187
0.0260491
0.013735
0.0229068
0.0526223
0.0275512
0.0418193
0.0312745
0.0537971
0.0155697
0.0467393
0.051904
0.0323663
0.0331953
0.0155083
0.0441157
0.0317163
0.0452575
0.0328652
0.0532696
0.0450899
0.0407932
0.0349543
0.0510664
0.0297246
0.0529728
0.0358798
0.0263182
0.0319491
0.032342
0.0501712
0.0322604
0.0423804
0.0445515
0.0292321
0.0331476
0.0472239
0.0420707
0.0320117
0.0303195
0.0448782
0.0280152
0.0516927
0.0519532
0.0251486
0.0323415
0.0177007
0.0273787
0.0524882
0.0311414
0.0318408
0.053544
0.0480571
0.0435567
0.0394939
0.0320617
0.0187834
0.0530857
0.0436127
0.0434294
0.0413351
0.0444168
0.0396558
0.031599
0.0324682
0.0468569
0.050734
0.0467553
0.00599901
0.0443756
0.043627
0.0457208
0.0318859
0.048924
0.0463205
0.0456808
0.0230657
0.0263794
0.0413717
0.0511824
0.0139111
0.0140359
0.0320445
0.0507916
0.043004
0.0324357
0.0249072
0.0533968
0.0532063
0.0503197
0.0528919
0.0323924
0.0415348
0.033751
0.0333532
0.0460414
0.0320815
0.0490623
0.022852
0.0322772
0.0428493
0.0531557
0.0323424
0.0492025
0.0490987
0.0303679
0.0365066
0.0248126
0.0309822
0.0444397
0.0238335
0.0438798
0.0527833
0.0324178
0.0417071
0.015503
0.0534712
0.0163596
0.0321942
0.0314053
0.0376738
0.0473617
0.0107982
0.0521514
0.0315953
0.03249
0.0439251
0.0437463
0.0318293
0.0104003
0.0237549
0.0290931
0.0431483
0.0423971
0.0532949
0.0384648
0.0320709
0.0516313
0.044036
0.043615
0.0325629
0.0442255
0.0528018
0.0430725
0.0474716
0.0193903
0.0310453
0.0321825
0.0258661
0.0440004
0.0324838
0.00867419
0.0246091
0.0340387
0.0509855
0.0323962
0.0204767
0.0504797
0.00753033
0.00841807
0.0532478
0.0242905
0.0324227
0.0433139
0.0313653
0.0323011
0.0345445
0.0235191
0.0524086
0.043153
0.0411218
0.0312804
0.0453985
0.0314917
0.0439978
0.0433866
0.0517441
0.0497126
0.0530553
0.0314986
0.0304207
0.0323988
0.0411601
0.0412599
0.014767
0.0318085
0.0521901
0.00872043
0.0140941
0.0230853
0.0322719
0.0431741
0.0328429
0.0320627
0.0432547
0.00550751
0.0448835
0.0414294
0.0531092
0.0510865
0.0509238
0.0456859
0.0231432
0.048478
0.0313725
0.0404264
0.0371688
0.00950883
0.0428363
0.0327324
0.00953085
0.0173286
0.0417285
0.0427995
0.0321543
0.0458552
0.0280803
0.0238307
0.0186431
0.0536141
0.0510027
0.042356
0.0418841
0.0464463
0.0503813
0.0495561
0.0222123
0.0521691
0.0260442
0.036659
0.0306279
0.0110407
0.0324777
0.0326874
0.0321777
0.0423826
0.0308751
0.0325128
0.0428642
0.0429467
0.0498327
0.0150505
0.0322603
0.0309796
0.0221854
0.0482177
0.0513686
0.0423774
0.0302234
0.0467177
0.03089
0.0328911
0.0166045
0.0428998
0.049466
0.0307789
0.048
0.021076
0.0522689
0.0306773
0.0219609
0.0496929
0.0323368
0.0408717
0.00600884
0.00838827
0.0342992
0.0329165
0.0312836
0.0260029
0.051664
0.0219443
0.0211405
0.00940416
0.0418002
0.0408585
0.0327689
0.0348809
0.0424878
0.0491523
0.0484455
0.0494054
0.028492
0.0459112
0.0298247
0.0476889
0.0488755
0.0428815
0.0174296
0.0161039
0.0510465
0.0314181
0.038791
0.0302809
0.011333
0.0379431
0.0305209
0.0487011
0.0305858
0.0473676
0.0428111
0.0410144
0.0231949
0.0110554
0.0398117
0.048129
0.0302858
0.0101549
0.0194568
0.0326046
0.0216795
0.0214509
0.0306487
0.0285136
0.0426658
0.0320529
0.0411524
0.0194633
0.0196638
0.0424654
0.0328141
0.0514785
0.0321137
0.0242485
0.0204284
0.00933279
0.0460357
0.0450507
0.0126622
0.0477302
0.0411651
0.0325132
0.0488861
0.0392836
0.0329174
0.0448488
0.0309666
0.0466566
0.0154074
0.0413732
0.0215237
0.045252
0.0490945
0.0345634
0.0315929
0.0438199
0.0327786
0.0330994
0.014738
0.0486366
0.0436544
0.0426458
0.0449882
0.0440686
0.0271577
0.0449739
0.0430566
0.0440854
0.0105085
0.0328998
0.040519
0.0458466
0.0191177
0.0444231
0.0391296
0.00696919
0.0444557
0.0424532
0.043047
0.0311485
0.0354822
0.0434453
0.0438875
0.0405757
0.0182255
0.0435366
0.049036
0.0204539
0.0365081
0.0339403
0.0227938
0.0408072
0.0221789
0.0487153
0.0438038
0.0435062
0.0174912
0.0241747
0.0401476
0.0101829
0.0361294
0.0415112
0.0142147
0.0415853
0.0318671
0.0446341
0.0444007
0.00672215
0.0430636
0.0388854
0.0443959
0.0406454
0.00437555
0.00588161
0.0188276
0.0160601
0.0387173
0.0179447
0.0326623
0.0473937
0.0319217
0.0408196
0.0480448
0.0369153
0.00819874
0.0332261
0.0430655
0.0431789
0.04943
0.0443772
0.0144488
0.0426246
0.0319039
0.0170996
0.0328379
0.0224756
0.0197253
0.0232134
0.0384362
0.0144679
0.0163111
0.019094
0.0235221
0.0456695
0.0101623
0.0395839
0.0333375
0.0416153
0.0230793
0.0378725
0.0221789
0.0409189
0.00548717
0.0214216
0.0313985
0.0121524
0.0376485
0.0399645
0.00885607
0.0420625
0.0242582
0.0325585
0.0202304
0.0367083
0.0322372
0.040496
0.0331882
0.0409062
0.0354983
0.0333176
0.033859
0.0204834
0.0408584
0.0227499
0.037942
0.0406755
0.0338678
0.0209429
0.0320072
0.0109289
0.0140515
0.0220688
0.0447147
0.0416525
0.0345972
0.0321895
0.0366217
0.0185476
0.0367451
0.035584
0.0414908
0.0407504
0.0436725
0.0189134
0.0367566
0.0421026
0.0365677
0.0409228
0.0439279
0.0337152
0.0175171
0.0321696
0.0324666
0.0151678
0.034443
0.046115
0.0404558
0.0398708
0.0401754
0.0461949
0.022172
0.0407177
0.0316724
0.032734
0.0137032
0.0323894
0.0317283
0.040375
0.0342656
0.0420957
0.031792
0.0422644
0.0316598
0.0458257
0.0329208
0.0407335
0.0144469
0.04543
0.0125482
0.0465088
0.0187202
0.034177
0.00738792
0.037053
0.0356804
0.0408716
0.033469
0.0103403
0.0314086
0.0355579
0.0125031
0.0146017
0.0121803
0.0125112
0.0328653
0.0402598
0.0418975
0.014636
0.0406801
0.0406322
0.0131382
0.0336269
0.0179575
0.0321409
0.0313905
0.0355872
0.0317592
0.0334132
0.018432
0.0417856
0.0229465
0.0332276
0.0313916
0.0414517
0.0322166
0.0121157
0.019017
0.0412732
0.0204523
0.0182268
0.0339384
0.0176893
0.032502
0.0429998
0.0177631
0.0341692
0.0352582
0.0181651
0.0315567
0.04117
0.0134839
0.0183455
0.0186428
0.0326385
0.0331865
0.0318625
0.0432444
0.0325036
0.0312201
0.0410312
0.0307623
0.00476424
0.00462533
0.0201189
0.0335751
0.0352989
0.0338662
0.0384953
0.031324
0.00900886
0.0375044
0.031958
0.0330653
0.0380127
0.0140021
0.0198381
0.0126918
0.0197388
0.0389572
0.0343257
0.0131723
0.0412976
0.0315373
0.0321898
0.0407041
0.0326199
0.0177541
0.014771
0.0353584
0.0340898
0.0123225
0.0441434
0.0237145
0.0315488
0.0320805
0.00701086
0.0363157
0.0359634
0.0350543
0.0204074
0.0416125
0.0435449
0.0329264
0.0337775
0.0433546
0.0410497
0.0337507
0.0434845
0.0319379
0.0118077
0.0417504
0.0409855
0.0336595
0.0134956
0.0399464
0.0203433
0.0440074
0.0199179
0.0306885
0.00747704
0.0406536
0.0326564
0.0320589
0.0342428
0.0353576
0.0351099
0.0060607
0.0129633
0.0393505
0.0323519
0.0423378
0.0424728
0.0339055
0.0400732
0.0334767
0.0392158
0.0338649
0.0401352
0.0397644
0.041946
0.0123644
0.0355171
0.0381564
0.032275
0.0408775
0.0326996
0.0426468
0.0355264
0.0415699
0.0102453
0.0422257
0.0212771
0.0128382
0.0326134
0.0388219
0.0128635
0.0415697
0.0339549
0.0348142
0.0372459
0.0339443
0.0350248
0.035274
0.0427179
0.0411993
0.0377725
0.0378362
0.0340805
0.0383009
0.042943
0.0331865
0.00677674
0.0330658
0.0413858
0.0329813
0.0384045
0.0327123
0.0409461
0.0119971
0.0112568
0.0419219
0.00986727
0.0355878
0.0410187
0.0407722
0.0400186
0.0334529
0.0356082
0.0391424
0.0407133
0.0422046
0.0342192
0.0402497
0.0340928
0.0408497
0.00764744
0.00518058
0.0337972
0.0405401
0.0409472
0.0167528
0.0315706
0.0343485
0.0350649
0.0421092
0.0417839
0.0335797
0.041392
0.0245245
0.0222229
0.0337468
0.0343377
0.0342619
0.0328349
0.0382623
0.0379669
0.0323168
0.0375355
0.035069
0.0329386
0.0343182
0.0175527
0.0343988
0.042061
0.0333241
0.0062795
0.0043205
0.0422375
0.0343662
0.0409943
0.0395168
0.0393934
0.042152
0.040665
0.0357886
0.0410842
0.0322013
0.0411151
0.041018
0.0325849
0.0376278
0.0338131
0.0387779
0.0323031
0.0338927
0.0408899
0.0347701
0.0357287
0.0355161
0.0419282
0.0385584
0.0421468
0.0376193
0.0342583
0.0416572
0.0330784
0.0321971
0.0344363
0.0228933
0.0228509
0.0217013
0.0417669
0.0115274
0.0419529
0.032565
0.0337692
0.0421265
0.0412173
0.0375165
0.0400298
0.0398434
0.040005
0.0357175
0.0382543
0.0355586
0.0319959
0.0414007
0.0423773
0.0417844
0.0327342
0.0378778
0.0306944
0.0309428
0.0333458
0.0426409
0.0423083
0.0332786
0.0416339
0.0419698
0.0338041
0.0380109
0.0386572
0.0341178
0.0390391
0.0381458
0.0379558
0.0379905
0.041234
0.0421852
0.00343539
0.00370744
0.026518
0.00227607
0.0365395
0.0046135
0.0236795
0.0256439
0.0359078
0.0241843
0.0223197
0.0223542
0.0266208
0.0250175
0.023027
0.0242039
0.0385853
0.0382824
0.0397224
0.0380847
0.0382429
0.0388391
0.0393121
0.037321
0.0270244
0.0271045
0.0277293
0.0266742
0.0260225
0.027034
0.0396952
0.0412913
0.0443476
0.0424115
0.0417331
0.042084
0.0120005
0.0104873
0.0188727
0.0162057
0.0166353
0.00922469
0.0161403
0.0330094
0.00954043
0.0166466
0.0114461
0.00608413
0.0437046
0.0173354
0.00774946
0.0083548
0.0074508
0.0327129
0.00676249
0.0214428
0.0332678
0.00827542
0.0153976
0.0322891
0.0192033
0.00658635
0.0062725
0.00578599
0.00412097
0.00830877
0.00404065
0.00469406
0.00439598
0.0368555
0.010886
0.0161423
0.00406495
0.00243103
0.00268872
0.0118946
0.0327763
0.0326564
0.00454455
0.00591598
0.00556962
0.0169044
0.0179129
0.0110417
0.0168527
0.0431739
0.0110353
0.00656059
0.00574169
0.00395697
0.0078862
0.00490458
0.00836108
0.00542164
0.00536529
0.00510295
0.00273439
0.00302419
0.037006
0.0331183
0.00833134
0.0432439
0.00529808
0.00520169
0.00726027
0.00758375
0.0144967
0.0058547
0.0331864
0.00809961
0.0184139
0.0154524
0.00322092
0.0139062
0.00920586
0.0100035
0.00498257
0.0461893
0.0124826
0.0332186
0.00725598
0.0082491
0.0507383
0.00773856
0.00642181
0.00352441
0.0194375
0.0333181
0.0525205
0.00642602
0.00956189
0.0034195
0.033323
0.0462823
0.0101998
0.0490109
0.033345
0.00542399
0.0333365
0.0490884
0.0143582
0.0330264
0.0148352
0.0116922
0.0105361
0.00308478
0.0330937
0.00502425
0.00427295
0.0508622
)
;

boundaryField
{
    patch0
    {
        type            kqRWallFunction;
        value           nonuniform List<scalar> 
4010
(
0.0263063
0.0263063
0.0338604
0.0338604
0.04589
0.04589
0.0454783
0.0454783
0.0370021
0.0370021
0.0455724
0.0455724
0.0452578
0.0452578
0.0463829
0.0463829
0.0460585
0.0460585
0.0460767
0.0460767
0.0473939
0.0473939
0.0469658
0.0469658
0.0262042
0.0262042
0.0495878
0.0495878
0.051536
0.051536
0.0511491
0.0511491
0.0275857
0.0275857
0.0491731
0.0491731
0.0237575
0.0237575
0.051508
0.051508
0.0193719
0.0193719
0.0327595
0.0327595
0.0285848
0.0285848
0.0513297
0.0513297
0.0326987
0.0326987
0.0374092
0.0374092
0.042737
0.042737
0.0418607
0.0418607
0.0419068
0.0419068
0.045218
0.045218
0.029119
0.029119
0.0327686
0.0327686
0.0196869
0.0196869
0.0277373
0.0277373
0.0425292
0.0425292
0.0289398
0.0289398
0.033819
0.033819
0.0432027
0.0432027
0.0448392
0.0448392
0.0289109
0.0289109
0.0362617
0.0362617
0.0229628
0.0229628
0.0354993
0.0354993
0.0275494
0.0275494
0.0431251
0.0431251
0.0411218
0.0411218
0.024325
0.024325
0.0455843
0.0455843
0.00889304
0.00889304
0.0122462
0.0122462
0.018675
0.018675
0.0257272
0.0257272
0.0329525
0.0329525
0.015308
0.015308
0.0396838
0.0396838
0.0458361
0.0458361
0.0224487
0.0224487
0.0434563
0.0434563
0.0421702
0.0421702
0.0479344
0.0479344
0.0254524
0.0254524
0.0516818
0.0516818
0.0241631
0.0241631
0.0457736
0.0457736
0.0147359
0.0147359
0.0457516
0.0457516
0.0502792
0.0502792
0.0309023
0.0309023
0.0423316
0.0423316
0.0195792
0.0195792
0.0227811
0.0227811
0.0513443
0.0513443
0.0452753
0.0452753
0.0451208
0.0451208
0.0438159
0.0438159
0.0263105
0.0263105
0.0448918
0.0448918
0.0433686
0.0433686
0.0462435
0.0462435
0.0224199
0.0224199
0.0433896
0.0433896
0.0440686
0.0440686
0.0448765
0.0448765
0.021268
0.021268
0.019132
0.019132
0.0311356
0.0311356
0.0425712
0.0425712
0.0527235
0.0527235
0.0093275
0.0093275
0.0227959
0.0227959
0.0502555
0.0502555
0.0439078
0.0439078
0.0413004
0.0413004
0.0430346
0.0430346
0.0248379
0.0248379
0.0112607
0.0112607
0.0449656
0.0449656
0.0438864
0.0438864
0.0477929
0.0477929
0.0250667
0.0250667
0.0462367
0.0462367
0.0248989
0.0248989
0.0482879
0.0482879
0.0450809
0.0450809
0.0430904
0.0430904
0.0427633
0.0427633
0.0464947
0.0464947
0.0405139
0.0405139
0.0464548
0.0464548
0.044343
0.044343
0.0443649
0.0443649
0.0451808
0.0451808
0.0428094
0.0428094
0.045917
0.045917
0.0458028
0.0458028
0.0174863
0.0174863
0.0460944
0.0460944
0.0505618
0.0505618
0.0327332
0.0327332
0.0444941
0.0444941
0.0131586
0.0131586
0.0069798
0.0069798
0.0150123
0.0150123
0.0183696
0.0183696
0.0506943
0.0506943
0.04434
0.04434
0.0274459
0.0274459
0.0427306
0.0427306
0.045351
0.045351
0.011234
0.011234
0.0440428
0.0440428
0.0464495
0.0464495
0.0243648
0.0243648
0.0460954
0.0460954
0.0262162
0.0262162
0.0455532
0.0455532
0.0455065
0.0455065
0.0457334
0.0457334
0.052578
0.052578
0.0429032
0.0429032
0.0454951
0.0454951
0.050901
0.050901
0.0143178
0.0143178
0.0143178
0.0160367
0.0160367
0.0160367
0.046033
0.046033
0.0145566
0.0145566
0.0406267
0.0406267
0.0253927
0.0253927
0.0465399
0.0465399
0.0325521
0.0325521
0.0446468
0.0446468
0.00682205
0.00682205
0.00682205
0.0275642
0.0275642
0.0465049
0.0465049
0.0458064
0.0458064
0.0444288
0.0444288
0.00713409
0.00713409
0.0457518
0.0457518
0.0445105
0.0445105
0.0389541
0.0389541
0.0463996
0.0463996
0.0297931
0.0297931
0.0462587
0.0462587
0.00710444
0.00710444
0.0432206
0.0432206
0.04568
0.04568
0.0462199
0.0462199
0.00696717
0.00696717
0.0438704
0.0438704
0.0463752
0.0463752
0.0275054
0.0275054
0.0467787
0.0467787
0.0426563
0.0426563
0.0451219
0.0451219
0.0457295
0.0457295
0.0356825
0.0356825
0.0461797
0.0461797
0.0207278
0.0207278
0.0273906
0.0273906
0.0469814
0.0469814
0.043368
0.043368
0.0510292
0.0510292
0.0442971
0.0442971
0.0463412
0.0463412
0.00712783
0.00712783
0.0312326
0.0312326
0.0284066
0.0284066
0.0452909
0.0452909
0.0437851
0.0437851
0.046399
0.046399
0.0389809
0.0389809
0.0466727
0.0466727
0.044258
0.044258
0.0469803
0.0469803
0.0471397
0.0471397
0.00704228
0.00704228
0.00704228
0.0465454
0.0465454
0.0341785
0.0341785
0.0403736
0.0403736
0.0324228
0.0324228
0.0128931
0.0128931
0.0340312
0.0340312
0.0466998
0.0466998
0.0480635
0.0480635
0.0340587
0.0340587
0.0432911
0.0432911
0.0482622
0.0482622
0.028853
0.028853
0.0267434
0.0267434
0.0175062
0.0175062
0.0175062
0.00740491
0.00740491
0.046685
0.046685
0.0539745
0.0539745
0.0472731
0.0472731
0.0453062
0.0453062
0.0428178
0.0428178
0.0436729
0.0436729
0.0388155
0.0388155
0.0483259
0.0483259
0.042536
0.042536
0.0429709
0.0429709
0.0442152
0.0442152
0.0468815
0.0468815
0.0539154
0.0539154
0.0478826
0.0478826
0.046612
0.046612
0.0446814
0.0446814
0.0427387
0.0427387
0.0477298
0.0477298
0.0332771
0.0332771
0.0232981
0.0232981
0.0496617
0.0496617
0.0401092
0.0401092
0.0223267
0.0223267
0.0474513
0.0474513
0.0390097
0.0390097
0.0390097
0.0540367
0.0540367
0.0501969
0.0501969
0.0471896
0.0471896
0.00729867
0.00729867
0.00729867
0.0514736
0.0514736
0.040165
0.040165
0.0534829
0.0534829
0.0296519
0.0296519
0.0389172
0.0389172
0.0270381
0.0270381
0.0503126
0.0503126
0.0451741
0.0451741
0.0433904
0.0433904
0.0426901
0.0426901
0.0341565
0.0341565
0.00778434
0.00778434
0.0478448
0.0478448
0.0468906
0.0468906
0.0435805
0.0435805
0.0540039
0.0540039
0.0369559
0.0369559
0.036578
0.036578
0.0429715
0.0429715
0.0504717
0.0504717
0.0453099
0.0453099
0.0473844
0.0473844
0.0448918
0.0448918
0.0429742
0.0429742
0.032763
0.032763
0.0431157
0.0431157
0.0215417
0.0215417
0.0425554
0.0425554
0.0384981
0.0384981
0.0152285
0.0152285
0.0331187
0.0331187
0.0446704
0.0446704
0.0272045
0.0272045
0.0391371
0.0391371
0.0497542
0.0497542
0.0431743
0.0431743
0.0501472
0.0501472
0.0475373
0.0475373
0.0467237
0.0467237
0.0369402
0.0369402
0.00880829
0.00880829
0.00739931
0.00739931
0.00739931
0.0498888
0.0498888
0.0484684
0.0484684
0.01306
0.01306
0.0452393
0.0452393
0.0443566
0.0443566
0.00895193
0.00895193
0.0518841
0.0518841
0.0398795
0.0398795
0.0477439
0.0477439
0.0444211
0.0444211
0.0481691
0.0481691
0.0542888
0.0542888
0.0127221
0.0127221
0.0433826
0.0433826
0.0534012
0.0534012
0.0301284
0.0301284
0.0424689
0.0424689
0.0541261
0.0541261
0.00919265
0.00919265
0.00919265
0.0470338
0.0470338
0.0534573
0.0534573
0.043821
0.043821
0.0520666
0.0520666
0.0414181
0.0414181
0.0222982
0.0222982
0.051623
0.051623
0.0358385
0.0358385
0.044782
0.044782
0.0281023
0.0281023
0.030969
0.030969
0.0485281
0.0485281
0.0330231
0.0330231
0.0438948
0.0438948
0.0242532
0.0242532
0.0453633
0.0453633
0.0521193
0.0521193
0.0478703
0.0478703
0.0466406
0.0466406
0.0435897
0.0435897
0.033147
0.033147
0.0471226
0.0471226
0.0444096
0.0444096
0.0430175
0.0430175
0.0425099
0.0425099
0.0427331
0.0427331
0.0387766
0.0387766
0.0452176
0.0452176
0.0457135
0.0457135
0.0363348
0.0363348
0.0503093
0.0503093
0.0330605
0.0330605
0.0519996
0.0519996
0.0426352
0.0426352
0.0482595
0.0482595
0.0488198
0.0488198
0.048864
0.048864
0.0493925
0.0493925
0.0476781
0.0476781
0.0426642
0.0426642
0.0455507
0.0455507
0.0325797
0.0325797
0.0309691
0.0309691
0.053182
0.053182
0.050985
0.050985
0.0225446
0.0225446
0.0505416
0.0505416
0.0300755
0.0300755
0.0411184
0.0411184
0.0336663
0.0336663
0.0317994
0.0317994
0.0367864
0.0367864
0.0543003
0.0543003
0.0282886
0.0282886
0.0426887
0.0426887
0.0067778
0.0067778
0.0528573
0.0528573
0.0326941
0.0326941
0.0108352
0.0108352
0.0487315
0.0487315
0.054105
0.054105
0.0534709
0.0534709
0.0499197
0.0499197
0.0330438
0.0330438
0.0483731
0.0483731
0.0328041
0.0328041
0.0330934
0.0330934
0.0493839
0.0493839
0.0488679
0.0488679
0.0514792
0.0514792
0.0467362
0.0467362
0.0353269
0.0353269
0.0530715
0.0530715
0.0398355
0.0398355
0.0162734
0.0162734
0.053663
0.053663
0.0514039
0.0514039
0.0324954
0.0324954
0.0504022
0.0504022
0.0507507
0.0507507
0.042648
0.042648
0.042605
0.042605
0.0474685
0.0474685
0.0336166
0.0336166
0.0491568
0.0491568
0.0429783
0.0429783
0.050161
0.050161
0.0367797
0.0367797
0.0489686
0.0489686
0.0395437
0.0395437
0.0328463
0.0328463
0.0446029
0.0446029
0.0503698
0.0503698
0.0503683
0.0503683
0.0228089
0.0228089
0.0228089
0.0347978
0.0347978
0.0323929
0.0323929
0.0453911
0.0453911
0.0503327
0.0503327
0.0161854
0.0161854
0.0424649
0.0424649
0.03143
0.03143
0.0380774
0.0380774
0.00534696
0.00534696
0.00534696
0.0489629
0.0489629
0.0459634
0.0459634
0.0504356
0.0504356
0.0327022
0.0327022
0.0339285
0.0339285
0.0488207
0.0488207
0.0325545
0.0325545
0.0531753
0.0531753
0.0501551
0.0501551
0.0499706
0.0499706
0.0422807
0.0422807
0.0424658
0.0424658
0.0544222
0.0544222
0.0325668
0.0325668
0.0445577
0.0445577
0.0542422
0.0542422
0.0330397
0.0330397
0.0437041
0.0437041
0.0292269
0.0292269
0.03298
0.03298
0.0529022
0.0529022
0.0436533
0.0436533
0.044658
0.044658
0.0326199
0.0326199
0.0398239
0.0398239
0.0492711
0.0492711
0.0422338
0.0422338
0.044892
0.044892
0.0323102
0.0323102
0.0502358
0.0502358
0.0396311
0.0396311
0.0515048
0.0515048
0.0176701
0.0176701
0.0507197
0.0507197
0.0324742
0.0324742
0.0331887
0.0331887
0.0351795
0.0351795
0.0475762
0.0475762
0.0375602
0.0375602
0.0503898
0.0503898
0.0391738
0.0391738
0.0391738
0.0491864
0.0491864
0.0427661
0.0427661
0.0445719
0.0445719
0.0503179
0.0503179
0.0514549
0.0514549
0.0326301
0.0326301
0.0481493
0.0481493
0.0475397
0.0475397
0.0348071
0.0348071
0.0459471
0.0459471
0.0484371
0.0484371
0.0536195
0.0536195
0.0321509
0.0321509
0.0505248
0.0505248
0.0426246
0.0426246
0.0322368
0.0322368
0.0251937
0.0251937
0.0324401
0.0324401
0.0321036
0.0321036
0.0504724
0.0504724
0.0505645
0.0505645
0.0499307
0.0499307
0.0517046
0.0517046
0.0464046
0.0464046
0.0339668
0.0339668
0.0322056
0.0322056
0.0438727
0.0438727
0.0461868
0.0461868
0.0332537
0.0332537
0.0428775
0.0428775
0.0450949
0.0450949
0.0530282
0.0530282
0.0503571
0.0503571
0.0503
0.0503
0.0493221
0.0493221
0.0510358
0.0510358
0.0474046
0.0474046
0.050656
0.050656
0.0323698
0.0323698
0.0330734
0.0330734
0.0364772
0.0364772
0.0532838
0.0532838
0.0414488
0.0414488
0.04392
0.04392
0.0203607
0.0203607
0.0398413
0.0398413
0.0320499
0.0320499
0.044816
0.044816
0.0535733
0.0535733
0.0434514
0.0434514
0.0503916
0.0503916
0.0493955
0.0493955
0.0356358
0.0356358
0.0441567
0.0441567