/*--------------------------------*- C++ -*----------------------------------*\
  =========                 |
  \\      /  F ield         | OpenFOAM: The Open Source CFD Toolbox
   \\    /   O peration     | Website:  https://openfoam.org
    \\  /    A nd           | Version:  8
     \\/     M anipulation  |
\*---------------------------------------------------------------------------*/
FoamFile
{
    version     2.0;
    format      ascii;
    class       volScalarField;
    location    "0.85";
    object      nut;
}
// * * * * * * * * * * * * * * * * * * * * * * * * * * * * * * * * * * * * * //

dimensions      [0 2 -1 0 0 0 0];

internalField   nonuniform List<scalar> 
1924
(
0.00181669
0.00206095
0.00240499
0.00239531
0.00216235
0.00239573
0.00238626
0.0024149
0.00240464
0.0024076
0.00243738
0.00242408
0.00181685
0.00249128
0.0025527
0.00254361
0.00186381
0.00247902
0.00173036
0.00254788
0.00156511
0.002031
0.00189779
0.0025442
0.00202904
0.00218357
0.00233067
0.00228858
0.00229192
0.00238572
0.00191613
0.00203166
0.00158126
0.00186966
0.00230894
0.0019094
0.00206999
0.00232814
0.00237632
0.00190873
0.00214675
0.00170218
0.00212446
0.00186382
0.0023256
0.00227904
0.00174825
0.00239392
0.00105863
0.00124333
0.00153488
0.00180027
0.00203682
0.00138886
0.0022434
0.00240127
0.00168377
0.00233417
0.00229884
0.00246292
0.00179193
0.00256056
0.00174624
0.00239948
0.00136284
0.00239878
0.00252524
0.00197415
0.00230576
0.00157217
0.00169449
0.00255226
0.00238692
0.00238366
0.00235255
0.00182537
0.00238031
0.00233908
0.0024147
0.00168158
0.00233734
0.00236572
0.00237785
0.00163994
0.00155708
0.00197938
0.00231102
0.00258522
0.00108419
0.00169518
0.00252512
0.00236239
0.00228589
0.00233376
0.00176993
0.00119047
0.00238218
0.00234787
0.00245951
0.00177722
0.00241344
0.00177207
0.0024713
0.0023928
0.00233458
0.00232036
0.00242007
0.00226376
0.00242524
0.00236647
0.00236341
0.00238533
0.00231734
0.0024035
0.00240491
0.00148669
0.00241007
0.00252788
0.00202974
0.00236964
0.00128949
0.000357761
0.0013762
0.00152161
0.00253824
0.00236618
0.00186396
0.00232077
0.00239009
0.000419653
0.00235345
0.00241886
0.000204374
0.00240874
0.00181768
0.00239772
0.00239301
0.00239904
0.00257811
0.00232006
0.00239207
0.00254411
0.000122408
0.000130566
0.00240807
0.00135228
0.00226581
0.00178868
0.0024278
0.00202431
0.00237263
0.000176841
0.00186516
0.0024202
0.00240219
0.0023685
0.000361709
0.00239935
0.00236395
0.000257038
0.00241619
0.00195093
0.00241393
0.000360923
0.00233386
0.00240096
0.00241474
0.000270954
0.00235121
0.00241772
0.00186129
0.00242773
0.00231814
0.00239389
0.00239868
0.00213607
0.00240985
0.000373562
0.00185799
0.00243498
0.00234386
0.00253486
0.00236523
0.00241805
0.00094685
0.00196956
0.00189396
0.00239356
0.00234642
0.00241803
0.00221651
0.00242378
0.00235711
0.0024341
0.00243862
0.000179667
0.00242562
0.00208846
0.00226382
0.00202313
0.000279517
0.00206416
0.00242633
0.00245919
0.0020552
0.00234172
0.00246814
0.0019085
0.00183584
0.000130731
0.000368459
0.00242497
0.00261394
0.0024422
0.00239396
0.00232173
0.00234818
0.0022163
0.00246778
0.00231362
0.00233091
0.00235744
0.0024311
0.00261288
0.00245243
0.00242722
0.00236675
0.00232141
0.00245586
0.0020482
0.000280113
0.00250665
0.00225628
0.00034108
0.00244936
0.000194429
0.0026148
0.00252122
0.00243931
0.000182906
0.00254378
0.00225886
0.00260088
0.00193564
0.000360265
0.00184588
0.00251593
0.0023879
0.00233864
0.00232044
0.00206234
0.000323482
0.00245877
0.0024303
0.00234061
0.00261392
0.00216884
0.00215665
0.00233135
0.00252396
0.00239286
0.00244455
0.00238674
0.00232608
0.00203111
0.00233029
0.00164995
0.00231552
0.00220684
0.000302276
0.00204131
0.00237283
0.00185148
0.00223113
0.00250869
0.00233302
0.00250724
0.00245143
0.002426
0.00216651
0.000264319
0.000131203
0.00251442
0.00247903
0.00128373
0.00238729
0.00235868
0.000338374
0.00256625
0.00225122
0.00245738
0.0023663
0.00246838
0.00262034
0.00126927
0.00233662
0.00259983
0.00194924
0.00231204
0.00261556
0.000196646
0.00243513
0.00259889
0.00235212
0.00256452
0.00229323
0.00168022
0.00255546
0.00213469
0.00237109
0.0018819
0.0019728
0.00248003
0.00203837
0.00234773
0.00175077
0.0023945
0.00256868
0.00246063
0.00242704
0.0023433
0.00204231
0.00243896
0.00236176
0.00233679
0.00231526
0.00232848
0.00222075
0.00238886
0.00239319
0.00214896
0.00252537
0.00203946
0.00256122
0.00231653
0.00247058
0.00248476
0.00249164
0.00250675
0.00245556
0.00232071
0.00239325
0.00202514
0.00197611
0.00259319
0.00254311
0.000256615
0.00253414
0.00194344
0.00228596
0.00206176
0.000302819
0.00049792
0.00261925
0.00188735
0.0023219
0.000922666
0.00259186
0.00203236
0.00116731
0.0024831
0.00261399
0.00259878
0.00251239
0.00203993
0.00247269
0.00203152
0.00204092
0.0025057
0.00249176
0.00255153
0.00242957
0.00211659
0.00258376
0.00224979
0.000330344
0.00260231
0.00254903
0.00202294
0.00252973
0.00253682
0.00232017
0.00232513
0.00244892
0.00206091
0.0024948
0.00232514
0.0025185
0.00216146
0.00249251
0.000453789
0.00203259
0.00237696
0.00252611
0.00253533
0.00012793
0.0020967
0.0020194
0.00238599
0.00252213
0.00142616
0.00231294
0.00199018
0.00219567
8.0784e-05
0.00248836
0.00241083
0.00252752
0.00203091
0.00206683
0.0024851
0.00202347
0.00259743
0.0025221
0.00252265
0.00230325
0.0023145
0.0026206
0.00202509
0.00236841
0.00261715
0.00203957
0.00234981
0.00191867
0.00203798
0.00258653
0.0023415
0.00237324
0.00202572
0.00224699
0.00249606
0.00230753
0.00238656
0.00201653
0.00253134
0.00224247
0.00255073
0.00149604
0.00254187
0.00202231
0.0020462
0.00210512
0.00245159
0.00217934
0.00252718
0.000166958
0.00249454
0.00232067
0.00237634
0.00252207
0.00255078
0.00202577
0.00246834
0.00244599
0.00209394
0.00241132
0.00247834
0.00260083
0.00201181
0.00252969
0.00232009
0.00201443
0.0017842
0.00202134
0.00201165
0.00252579
0.00252928
0.00252049
0.00256455
0.00241699
0.00206756
0.00201266
0.00235051
0.00242033
0.00204611
0.00232822
0.0023833
0.00259686
0.00252503
0.0025189
0.00249753
0.00255385
0.00244953
0.00253069
0.00201811
0.00204107
0.00213842
0.00258721
0.00228835
0.00234829
0.00160499
0.00224567
0.00200799
0.00237437
0.00260145
0.00234661
0.00252434
0.00249939
0.00211679
0.00235458
0.00258535
0.00259401
0.00203107
0.00201602
0.00192077
0.00231347
0.00261787
0.00209339
0.00201712
0.00251668
0.00232656
0.00231214
0.00250506
0.00247046
0.00252849
0.00253212
0.00201043
0.00241187
0.00257235
0.00252203
0.00199817
0.00261476
0.00230236
0.00248068
0.00248755
0.00243663
0.00234261
0.00179301
0.00207716
0.00253112
0.00200752
0.00260251
0.00200698
0.00194835
0.00201631
0.00253462
0.00254711
0.00204479
0.00184053
0.00203713
0.00201284
0.0023808
0.00168585
0.00232641
0.00239405
0.00218611
0.00237494
0.00239979
0.00252939
0.00244412
0.00215518
0.00245108
0.00253438
0.00199686
0.00213731
0.00198701
0.00181302
0.00153804
0.00228035
0.00238187
0.00201738
0.00198931
0.00202639
0.00245798
0.00203195
0.00203016
0.0023153
0.00237199
0.00236489
0.00201365
0.00235236
0.00229171
0.00212016
0.00250666
0.00234598
0.00253234
0.00185955
0.00195858
0.00253923
0.00202495
0.00200674
0.00252429
0.00258815
0.00251073
0.0013694
0.00174092
0.00259764
0.00186544
0.00230383
0.00238706
0.00207344
0.00199178
0.000331068
0.00148162
0.0016251
0.00251535
0.00253591
0.00233047
0.00253723
0.00198147
0.00117591
0.00259493
0.00252876
0.00239317
0.00199903
0.00258603
0.00243823
0.00233216
0.00204376
0.00183903
0.00204049
0.00259127
0.00187214
0.00234207
0.00200628
0.00253059
0.00248879
0.00203391
0.0013099
0.00238907
0.00242725
0.00229852
0.00238292
0.00201382
0.0025615
0.00235401
0.00178964
0.00253227
0.00245664
0.00195029
0.00252818
0.00218785
0.00232599
0.00194853
0.0019935
0.00121164
0.00216223
0.00218769
0.00220329
0.00239964
0.00236547
0.00245894
0.00200665
0.00211563
0.00229594
0.00261063
0.00200663
0.00259764
0.00224005
0.00203798
0.00196213
0.00246297
0.00239323
0.00250194
0.00179768
0.00250876
0.0019593
0.00234105
0.00207893
0.00197878
0.00203172
0.00171911
0.00234853
0.00232437
0.00251235
0.00238857
0.00203492
0.00252922
0.00197367
0.00200044
0.00200295
0.00231055
0.00163491
0.0023536
0.00260627
0.0023076
0.00257994
0.00255224
0.00160038
0.00184867
0.00253738
0.00254159
0.00253918
0.00254099
0.00201757
0.00255467
0.00253428
0.00170207
0.00244357
0.00175154
0.00240252
0.00252926
0.0023774
0.00212895
0.00194853
0.00258856
0.00186221
0.00234936
0.00200538
0.002007
0.00229289
0.00191807
0.00218763
0.001947
0.00146007
0.00221505
0.00236834
0.00210935
0.00242713
0.00198552
0.00196402
0.00165025
0.00237577
0.00155999
0.00205777
0.00245806
0.00246087
0.0019281
0.00258502
0.00116074
0.00235632
0.00254311
0.00232939
0.00177698
0.00254281
0.000275147
0.000171771
0.00130173
0.00203264
0.00234201
0.00246501
0.00194475
0.00234047
0.00200137
0.00254432
0.00203776
0.00253832
0.00225504
0.0025425
0.00191593
0.00152127
0.00250865
0.00230357
0.000225794
0.00240945
0.000470308
0.00199546
0.00178768
0.0019793
0.00232858
0.0020172
0.00230965
0.00258978
0.00235692
0.00236674
0.00250284
0.00238914
0.00136313
0.00143347
0.00254894
0.0023938
0.00251295
0.0025951
0.00228889
0.0020113
0.00183642
0.00206247
0.00200071
0.00168655
0.00213875
0.00254933
0.00210025
0.00227949
0.00238024
0.00198186
0.00245146
0.0019912
0.00205255
0.0017232
0.00232998
0.00186255
0.00234856
0.00255854
0.00201347
0.00259262
0.00239441
0.00257854
0.00222621
0.00253157
0.00237509
0.00185329
0.00191434
0.0025343
0.00238929
0.00200146
0.0022914
0.00244158
0.00117499
0.00225074
0.00193328
0.00171525
0.00204387
0.00202645
0.0023869
0.00233254
0.00260208
0.00237478
0.00255073
0.00246375
0.00200055
0.00239437
0.00234852
0.00233236
0.000257711
0.00195629
0.00177399
0.00255308
0.00155726
0.00202017
0.00203468
0.00189132
0.00251137
0.00257677
0.0015665
0.00253622
0.00234189
0.00199906
0.00254662
0.00246918
0.0017841
0.0025691
0.00231796
0.00197677
0.00206647
0.00201293
0.00205036
0.00235762
0.00255804
0.00229079
7.61249e-05
0.0024074
0.000281438
0.00211572
0.00202986
0.000942134
0.00189985
0.00216547
0.00200664
0.00256144
0.00192182
0.00257563
0.00251034
0.00164183
0.00234334
0.00256097
0.00234057
0.00189167
0.00199135
0.00146587
0.00239231
0.00255058
0.00257578
0.00235794
0.00239145
0.00184351
0.00239678
0.00146102
0.00202577
0.00167705
0.00182746
0.00229008
0.00194474
0.00178203
0.00255117
0.00199895
0.00238824
0.00232621
0.00180658
0.000225683
0.00226048
0.00238527
0.00196826
0.00256078
0.00239429
0.00229637
0.00201826
0.00240885
0.00245789
0.00251556
0.00254029
0.00200222
0.00230668
0.000216014
0.00256579
0.00245155
0.00244878
0.00234888
0.00257177
0.00185657
0.00259126
0.00176866
0.00239423
0.00198675
0.00133976
0.002035
0.00201645
0.00251529
0.00145059
0.00209027
0.00251458
0.002063
0.00238384
0.00234568
8.27932e-05
0.00136126
0.00247136
0.00148663
0.002028
0.00199751
0.00238245
0.00239608
0.00258533
0.00201095
0.00148745
0.00229038
0.00179243
0.00231394
0.00251219
0.00257642
0.0021639
0.0020015
0.0025693
0.00201939
0.00189616
0.00237029
0.00195953
0.00256474
0.00193157
0.00222295
0.00247848
0.00236909
0.000126493
0.00229051
0.00131568
0.000297765
0.00233462
0.00200664
0.00238803
0.00166166
0.00258776
0.00185242
0.00201953
0.000219509
0.00196312
0.0025503
0.000110417
0.0018066
0.000151462
0.00169506
0.00257446
0.00186853
0.00229749
0.00198317
0.00261083
0.0014061
0.00241962
0.00256409
0.00201967
0.0020485
0.00139936
0.00235579
0.00199762
0.00238823
0.00203659
0.00259216
0.00238178
0.00227655
0.00210184
0.00253803
0.00194003
0.00258112
0.00213069
0.00181676
0.00200481
0.00201933
0.00251413
0.00201619
0.00230611
0.00236675
0.0019163
0.00204239
0.0024332
0.0023039
0.00200678
0.00195168
0.00237604
0.0018757
0.00255351
0.00255958
0.00177563
0.00201914
0.00148781
0.00185415
0.00257142
0.00197872
0.0020033
0.00259832
0.00245662
0.00235041
0.00222788
0.0020089
0.00153294
0.00258595
0.00234305
0.00234649
0.00228526
0.00236473
0.00223725
0.00199392
0.00202292
0.00243367
0.00254056
0.00243267
0.000123209
0.00236236
0.00234307
0.0023973
0.00200301
0.00248171
0.00241478
0.00239637
0.00171089
0.00181893
0.00228721
0.00254144
0.0013255
0.00133053
0.00200774
0.00253063
0.00232502
0.00202188
0.00176674
0.00259443
0.0025961
0.00251893
0.00258126
0.00202164
0.00229026
0.00206779
0.00205374
0.0024092
0.00200911
0.00249515
0.00169438
0.00201625
0.00232241
0.00259349
0.00201962
0.00250034
0.00248762
0.00195295
0.00215258
0.00176274
0.00197326
0.00236408
0.00172795
0.00234961
0.00258589
0.00202119
0.00229475
0.0013931
0.00259762
0.0014319
0.00201309
0.0019874
0.00218602
0.00244059
0.000297491
0.00256583
0.00199378
0.00202359
0.00061185
0.00235543
0.00200104
0.00114456
0.00172512
0.00191036
0.00233032
0.00231831
0.00259218
0.00221405
0.00200839
0.00255293
0.000612008
0.00060984
0.00202557
0.00236958
0.00258614
0.00232792
0.00244807
0.00155797
0.00197537
0.00201185
0.00180173
0.000611172
0.00202549
0.00104352
0.00175685
0.00207778
0.00254046
0.002022
0.0016014
0.00253056
0.000104531
0.000110614
0.00259724
0.00174363
0.00202069
0.00234389
0.00198614
0.00201745
0.00209371
0.00171661
0.00257516
0.00234014
0.00228011
0.00199126
0.00240036
0.00199045
0.000610927
0.00233674
0.00255664
0.00251
0.00259473
0.0019907
0.00195469
0.00202066
0.00228125
0.00228294
0.00135808
0.002
0.00256898
0.000125237
0.00132911
0.00170043
0.00201475
0.000604546
0.00203407
0.00200809
0.000606825
0.000197578
0.00239323
0.00228722
0.00259436
0.00254204
0.00254518
0.00240774
0.00170196
0.0024785
0.00199386
0.00227324
0.0021768
0.000139436
0.000601868
0.00203053
0.000264288
0.00147499
0.00230868
0.0023225
0.00201078
0.0024127
0.00187776
0.00172746
0.00152871
0.00260708
0.00254026
0.00232799
0.00229304
0.00241948
0.00252849
0.00250854
0.00166694
0.00257618
0.00180733
0.00216536
0.00196247
0.000299681
0.00202119
0.0020331
0.00201366
0.000598012
0.00197079
0.00202712
0.00232047
0.000603449
0.00251573
0.00137542
0.00201619
0.00197431
0.00166742
0.00247532
0.00256185
0.00233096
0.00194896
0.00243653
0.00197143
0.00203526
0.00144514
0.00232346
0.00250368
0.00196692
0.00247482
0.00162459
0.00257523
0.00197396
0.00166894
0.00251725
0.00201626
0.00227547
9.4555e-05
0.000111799
0.00208832
0.00203603
0.00198359
0.00181461
0.00256848
0.00165724
0.00162699
0.00108633
0.000593603
0.00227464
0.00203026
0.00210654
0.00232277
0.00249988
0.00248129
0.00250934
0.0018916
0.0024224
0.00193609
0.00246624
0.00248981
0.00234654
0.00147527
0.00141722
0.00255874
0.00198775
0.00223229
0.00195149
0.000138821
0.00220381
0.00195954
0.00248538
0.00196172
0.00246446
0.000602139
0.00227672
0.00171449
0.000353578
0.00226158
0.00247908
0.00195129
0.000144107
0.00157223
0.00202453
0.00164947
0.00163864
0.00196312
0.00189231
0.00232745
0.00201013
0.00228017
0.00156213
0.00156811
0.00231343
0.00203279
0.0025657
0.00201175
0.00174512
0.00160063
0.00108428
0.00242916
0.00239793
0.000320136
0.00246762
0.000588999
0.00202892
0.00250422
0.00224754
0.0020358
0.00238876
0.00197364
0.00244725
0.00139186
0.00230937
0.00164341
0.00240642
0.00250643
0.00209929
0.0019929
0.000305667
0.00203784
0.00204051
0.00136111
0.00249581
0.00236345
0.002318
0.00240568
0.0003063
0.00184852
0.00240141
0.00232723
0.00030601
0.00115193
0.0020337
0.00226638
0.00240673
0.00154687
0.00237935
0.00224549
0.000197049
0.00238484
0.00233817
0.00234649
0.00197914
0.00213214
0.000304265
0.00236788
0.00226821
0.00150992
0.00236767
0.00250668
0.00160223
0.0021645
0.00207925
0.00169024
0.00227178
0.00166725
0.00250894
0.000304603
0.000303499
0.00148305
0.00174503
0.00225858
0.000144346
0.00215435
0.00231057
0.000310751
0.00231794
0.00200116
0.00239175
0.00237894
0.000182917
0.000301759
0.00222397
0.00238438
0.000585753
8.57643e-05
9.93983e-05
0.00153741
0.00142155
0.00221742
0.00149958
0.00202776
0.00247394
0.00200616
0.00229537
0.00248721
0.00217837
0.000127296
0.00205819
0.00030233
0.000302955
0.00252579
0.00238315
0.00134798
0.000299934
0.00200625
0.00146248
0.00203263
0.000435212
0.00157384
0.000442532
0.00222361
0.000342948
0.00143385
0.00155851
0.000446273
0.00241747
0.000292846
0.00225816
0.00204776
0.00059302
0.000442719
0.00219629
0.000434002
0.0022744
0.00018879
0.000425655
0.0019866
0.00123811
0.00218662
0.00225356
0.000179414
0.000297737
0.00045489
0.00203226
0.00159335
0.0021695
0.00202136
0.00226971
0.00204229
0.00228337
0.00213151
0.0020476
0.00208079
0.000416957
0.0022807
0.00170039
0.00221198
0.00226886
0.00207935
0.00162093
0.00201934
0.000149136
0.00132914
0.000432514
0.00238833
0.00230182
0.00210593
0.00201111
0.00216586
0.00152537
0.0021609
0.00213576
0.000295749
0.00227043
0.00236597
0.00154082
0.00055778
0.00230359
0.00215258
0.0022752
0.00237247
0.00207414
0.000385677
0.00202087
0.00202145
0.000358161
0.00209051
0.00242999
0.000584667
0.00225064
0.00225719
0.00244519
0.000433025
0.0022766
0.00199958
0.00202859
0.000339841
0.00202999
0.00199665
0.00226562
0.00209223
0.000298296
0.00200765
0.00230802
0.00199811
0.00243193
0.00204856
0.00227295
0.00134886
0.00242574
0.0012563
0.0024525
0.00153298
0.00207909
0.000124986
0.000560304
0.00054957
0.000293573
0.00205131
0.000295395
0.00199368
0.00211988
0.00125375
0.00034609
0.000157408
0.00125791
0.00204317
0.0022599
0.00230909
0.00136
0.00226885
0.0022677
0.000333071
0.00206633
0.00150283
0.00201707
0.00199106
0.00211886
0.00200682
0.00204899
0.00152192
0.00229472
0.000440466
0.00205525
0.00198908
0.00228564
0.00201367
0.00123633
0.000201084
0.00228339
0.000420772
0.000197025
0.00207573
0.000193779
0.00202981
0.0023458
0.000193489
0.00208304
0.000546288
0.000195363
0.00199541
0.0022788
0.00033769
0.000196411
0.000197921
0.00202463
0.00204345
0.00200615
0.00235309
0.00202092
0.00198436
0.00227646
0.00197527
8.74756e-05
8.61213e-05
0.000206332
0.0020535
0.00211031
0.00206788
0.000571235
0.00198565
0.000276164
0.000563829
0.00200483
0.00203912
0.000567555
0.00034421
0.00157728
0.00126723
0.000204058
0.000574925
0.00208339
0.000163848
0.00228149
0.00199249
0.00201257
0.00226888
0.00202314
0.000194447
0.000177336
0.00211099
0.00207209
0.000161545
0.00238839
0.000447733
0.00199326
0.00200758
0.000121255
0.000276959
0.000275714
0.000544986
0.00160016
0.00228968
0.00236859
0.00203411
0.00206472
0.00235396
0.00227584
0.00205845
0.00236199
0.0020035
0.000157662
0.00231014
0.00227462
0.00205645
0.000335627
0.00225086
0.00020705
0.00237769
0.0015856
0.000256055
0.00025217
0.00226723
0.00202524
0.00200918
0.00207118
0.000273327
0.00209747
0.000113228
0.000326021
0.000576397
0.00201714
0.00232742
0.00232668
0.00206332
0.00225536
0.00204955
0.000576731
0.00206239
0.00029115
0.0002897
0.00229873
0.00016157
0.00211692
0.000568392
0.0020145
0.00228165
0.00202748
0.00233399
0.00211547
0.00229177
0.00113503
0.00232431
0.000211762
0.000164707
0.00202535
0.000286834
0.000162336
0.00230257
0.00206178
0.0020858
0.000280808
0.00206511
0.000272068
0.000547582
0.00233891
0.00229145
0.000282841
0.000565483
0.00206893
0.000284752
0.00234197
0.00204338
0.000120573
0.00204079
0.00228647
0.00203789
0.000570261
0.00202811
0.0022853
0.00015919
0.000154165
0.0023124
0.00111423
0.00211919
0.00228563
0.00226961
0.00225385
0.00205036
0.00211516
0.00028838
0.00226842
0.00231353
0.00207334
0.00226224
0.00207043
0.00226942
0.000254398
0.000104767
0.00206366
0.00227315
0.00227617
0.00145
0.00199657
0.000537648
0.000272757
0.00230899
0.00229873
0.000531433
0.00229547
0.000455168
0.00021644
0.00206126
0.00207847
0.00207519
0.00202987
0.000284618
0.000283355
0.00201532
0.000564565
0.000543033
0.000526415
0.00207636
0.00148412
0.00207982
0.00230794
0.00204553
0.000230644
9.56323e-05
0.0023156
0.00207843
0.00227785
0.000578545
0.000288868
0.00231015
0.00227427
0.00212471
0.00228263
0.00200953
0.00228203
0.0022849
0.000524001
0.000282286
0.0020603
0.000572175
0.00201549
0.000266728
0.00227694
0.000270205
0.000551393
0.000274944
0.00230628
0.000285568
0.00230898
0.000567779
0.00207389
0.00229483
0.000263525
0.000520397
0.00207899
0.000441111
0.000438791
0.000214168
0.00229688
0.000153588
0.00229758
0.000261719
0.00205658
0.00230982
0.00228616
0.000282963
0.000291339
0.000580802
0.000583548
0.000549313
0.000574383
0.000273619
0.000259208
0.00229074
0.00230693
0.00230223
0.00202682
0.000285493
0.000253628
0.000509655
0.00204333
0.00231517
0.00230801
0.00204372
0.00229498
0.00230634
0.00205968
0.000285149
0.000574805
0.00206966
0.000286926
0.000568193
0.000283176
0.000566733
0.00228182
0.00230274
8.52945e-05
0.000177217
0.000238001
6.94195e-05
0.000556738
9.88528e-05
0.000223046
0.000464568
0.000276083
0.000450956
0.0002166
0.00021776
0.000473363
0.000229359
0.00022045
0.000453575
0.000573637
0.000285287
0.000289922
0.000283993
0.000569729
0.000288116
0.000580135
0.000280864
0.000237765
0.000238275
0.000482509
0.000236566
0.000233884
0.000476858
0.000291525
0.00228
0.00236571
0.00230759
0.00229256
0.00229891
0.000313365
0.000146317
0.0015442
0.00143056
0.00144856
0.000138355
0.00142309
0.00203798
0.00109592
0.00144557
0.000307268
0.000210638
0.00234696
0.00147715
0.000114626
0.000130907
0.000111876
0.00202848
0.000921636
0.0016471
0.00204616
0.00011789
0.00139583
0.00201714
0.00155612
9.46066e-05
9.23193e-05
9.84631e-05
8.30822e-05
0.000126274
8.22786e-05
8.86602e-05
8.58024e-05
0.00215812
0.000270133
0.0014242
7.58594e-05
5.91541e-05
6.22412e-05
0.000282049
0.00203177
0.00202681
8.59955e-05
6.90125e-05
6.69632e-05
0.00145739
0.00150113
0.000206666
0.00145812
0.0023313
0.00117959
0.000907557
0.000210106
8.42302e-05
0.000284613
0.000181298
0.000301346
0.000190577
0.000189664
0.000184913
5.78943e-05
6.09047e-05
0.00216031
0.00204157
0.00102499
0.0023322
0.000110587
0.000172543
0.000165006
0.000977486
0.00135452
0.000188854
0.00204365
0.0010104
0.00152766
0.0013976
7.70627e-05
0.00132548
0.00107724
0.00112421
0.00018458
0.00241547
0.00125709
0.00204451
0.000109149
0.00101942
0.00253263
0.000987393
0.000154115
7.59952e-05
0.00156759
0.00204779
0.002577
0.000898693
0.00109867
6.9867e-05
0.00204804
0.00241588
0.00113458
0.00248989
0.00204838
0.000192147
0.00204816
0.00249182
0.00134634
0.00203852
0.00136887
0.00121459
0.00115248
4.90073e-05
0.0020408
0.000163017
7.22057e-05
0.00253537
)
;

boundaryField
{
    patch0
    {
        type            nutkWallFunction;
        Cmu             0.09;
        kappa           0.41;
        E               9.8;
        value           nonuniform List<scalar> 
4010
(
0.00017132
0.00017132
0.000236173
0.000236173
0.00027421
0.00027421
0.000272957
0.000272957
0.000246088
0.000246088
0.000266789
0.000266789
0.000264137
0.000264137
0.000275177
0.000275177
0.000274974
0.000274974
0.000273758
0.000273758
0.000271462
0.000271462
0.000267537
0.000267537
0.00021044
0.00021044
0.00027393
0.00027393
0.000290794
0.000290794
0.00028978
0.00028978
0.00021667
0.00021667
0.000276438
0.000276438
0.000162735
0.000162735
0.000288299
0.000288299
0.000183331
0.000183331
0.000220004
0.000220004
0.000191039
0.000191039
0.000287755
0.000287755
0.000208546
0.000208546
0.000248068
0.000248068
0.00026124
0.00026124
0.000243459
0.000243459
0.000250212
0.000250212
0.00027062
0.00027062
0.000214939
0.000214939
0.000207753
0.000207753
0.00015022
0.00015022
0.000197986
0.000197986
0.000249189
0.000249189
0.000200668
0.000200668
0.000220313
0.000220313
0.000253845
0.000253845
0.000273212
0.000273212
0.000218736
0.000218736
0.000243093
0.000243093
0.000187633
0.000187633
0.000242024
0.000242024
0.000187505
0.000187505
0.000263946
0.000263946
0.000256483
0.000256483
0.000168142
0.000168142
0.00027161
0.00027161
0.000103435
0.000103435
0.000119937
0.000119937
0.000146663
0.000146663
0.000198478
0.000198478
0.000236742
0.000236742
0.000132496
0.000132496
0.000244626
0.000244626
0.000261561
0.000261561
0.000158803
0.000158803
0.000265211
0.000265211
0.000261125
0.000261125
0.000275565
0.000275565
0.00018088
0.00018088
0.000291041
0.000291041
0.000180095
0.000180095
0.000274685
0.000274685
0.000130169
0.000130169
0.000273458
0.000273458
0.000283599
0.000283599
0.000229725
0.000229725
0.000251389
0.000251389
0.000151102
0.000151102
0.000197676
0.000197676
0.000290246
0.000290246
0.000273327
0.000273327
0.000265762
0.000265762
0.000268911
0.000268911
0.000199382
0.000199382
0.000271139
0.000271139
0.000269016
0.000269016
0.000269132
0.000269132
0.000174355
0.000174355
0.000268873
0.000268873
0.000263948
0.000263948
0.000270899
0.000270899
0.00019152
0.00019152
0.000147006
0.000147006
0.000225442
0.000225442
0.000259774
0.000259774
0.000293871
0.000293871
0.000105706
0.000105706
0.000197642
0.000197642
0.000287064
0.000287064
0.0002647
0.0002647
0.000258754
0.000258754
0.000264071
0.000264071
0.000205866
0.000205866
0.000115168
0.000115168
0.000271339
0.000271339
0.000265765
0.000265765
0.000274562
0.000274562
0.00020666
0.00020666
0.000275247
0.000275247
0.000206061
0.000206061
0.00027544
0.00027544
0.000266649
0.000266649
0.000264896
0.000264896
0.000249846
0.000249846
0.000275961
0.000275961
0.000248805
0.000248805
0.000272483
0.000272483
0.000259103
0.000259103
0.000253559
0.000253559
0.000259003
0.000259003
0.000252912
0.000252912
0.000271982
0.000271982
0.000270835
0.000270835
0.000174736
0.000174736
0.000274761
0.000274761
0.000288235
0.000288235
0.000232815
0.000232815
0.000269962
0.000269962
0.00012376
0.00012376
3.85925e-05
3.85925e-05
0.000132451
0.000132451
0.000164963
0.000164963
0.000282777
0.000282777
0.000256507
0.000256507
0.000199539
0.000199539
0.000267182
0.000267182
0.000260357
0.000260357
4.46127e-05
4.46127e-05
0.000252783
0.000252783
0.000275909
0.000275909
2.43369e-05
2.43369e-05
0.000273916
0.000273916
0.000205849
0.000205849
0.000272308
0.000272308
0.000269839
0.000269839
0.000272329
0.000272329
0.000288693
0.000288693
0.000263895
0.000263895
0.000268738
0.000268738
0.000289056
0.000289056
1.44156e-05
1.44156e-05
1.44156e-05
1.56632e-05
1.56632e-05
1.56632e-05
0.000266433
0.000266433
0.000129444
0.000129444
0.000244983
0.000244983
0.000207934
0.000207934
0.000272743
0.000272743
0.00023349
0.00023349
0.000270357
0.000270357
2.02224e-05
2.02224e-05
2.02224e-05
0.000199929
0.000199929
0.000276101
0.000276101
0.000265832
0.000265832
0.000259024
0.000259024
3.89795e-05
3.89795e-05
0.000273892
0.000273892
0.000267303
0.000267303
3.10874e-05
3.10874e-05
0.000274578
0.000274578
0.000218823
0.000218823
0.000267308
0.000267308
3.89055e-05
3.89055e-05
0.000266111
0.000266111
0.000273231
0.000273231
0.000273558
0.000273558
2.99335e-05
2.99335e-05
0.000268046
0.000268046
0.000270567
0.000270567
0.000215446
0.000215446
0.000268391
0.000268391
0.00024956
0.00024956
0.000267272
0.000267272
0.000266893
0.000266893
0.000243868
0.000243868
0.000275444
0.000275444
4.41926e-05
4.41926e-05
0.000194617
0.000194617
0.000268735
0.000268735
0.000261947
0.000261947
0.000289467
0.000289467
0.00027011
0.00027011
0.000274826
0.000274826
9.35291e-05
9.35291e-05
0.000194138
0.000194138
0.000202695
0.000202695
0.000269115
0.000269115
0.000252139
0.000252139
0.000269185
0.000269185
0.0002404
0.0002404
0.000272827
0.000272827
0.000271127
0.000271127
0.000268839
0.000268839
0.0002771
0.0002771
2.05213e-05
2.05213e-05
2.05213e-05
0.000272016
0.000272016
0.000238888
0.000238888
0.000255329
0.000255329
0.000228912
0.000228912
3.06565e-05
3.06565e-05
0.000224707
0.000224707
0.000276062
0.000276062
0.000276459
0.000276459
0.000237897
0.000237897
0.000261711
0.000261711
0.000276787
0.000276787
0.000207939
0.000207939
0.000207781
0.000207781
1.55634e-05
1.55634e-05
1.55634e-05
3.96478e-05
3.96478e-05
0.00027632
0.00027632
0.000290509
0.000290509
0.000277524
0.000277524
0.000268812
0.000268812
0.000252035
0.000252035
0.000266495
0.000266495
0.000243555
0.000243555
0.000276931
0.000276931
0.000266626
0.000266626
0.000261709
0.000261709
0.000267906
0.000267906
0.000276545
0.000276545
0.00029113
0.00029113
0.000274688
0.000274688
0.000272632
0.000272632
0.000272348
0.000272348
0.000250296
0.000250296
0.000275157
0.000275157
0.000234509
0.000234509
3.37648e-05
3.37648e-05
0.000285206
0.000285206
0.000252954
0.000252954
4.12254e-05
4.12254e-05
0.000278091
0.000278091
2.35764e-05
2.35764e-05
2.35764e-05
0.000290452
0.000290452
0.000275649
0.000275649
0.000277382
0.000277382
2.08629e-05
2.08629e-05
2.08629e-05
0.000290621
0.000290621
0.000254865
0.000254865
0.000289096
0.000289096
0.000224153
0.000224153
4.29732e-05
4.29732e-05
0.000212202
0.000212202
0.000275904
0.000275904
0.000271965
0.000271965
0.000268997
0.000268997
0.000249786
0.000249786
0.000198002
0.000198002
3.52038e-05
3.52038e-05
0.000278904
0.000278904
0.000276615
0.000276615
0.000251733
0.000251733
0.000297146
0.000297146
0.000246692
0.000246692
0.000243113
0.000243113
0.000264959
0.000264959
0.000276302
0.000276302
0.000271819
0.000271819
0.000277762
0.000277762
0.000270025
0.000270025
0.000260388
0.000260388
0.000207979
0.000207979
0.000268318
0.000268318
0.000183229
0.000183229
0.000253653
0.000253653
0.000245617
0.000245617
3.3207e-05
3.3207e-05
0.000231959
0.000231959
0.000270513
0.000270513
0.000214351
0.000214351
0.000242949
0.000242949
0.000284767
0.000284767
0.000263802
0.000263802
0.000275482
0.000275482
0.000278519
0.000278519
0.000276401
0.000276401
0.000245153
0.000245153
2.9256e-05
2.9256e-05
1.53308e-05
1.53308e-05
1.53308e-05
0.000286032
0.000286032
0.000273197
0.000273197
0.000123337
0.000123337
0.00026608
0.00026608
0.000271418
0.000271418
3.66772e-05
3.66772e-05
0.000279811
0.000279811
0.000253908
0.000253908
0.000272015
0.000272015
0.000272052
0.000272052
0.000280256
0.000280256
0.000295689
0.000295689
0.000150408
0.000150408
0.000262961
0.000262961
0.000295615
0.000295615
0.000225859
0.000225859
0.000264191
0.000264191
0.00029598
0.00029598
2.22989e-05
2.22989e-05
2.22989e-05
0.000273285
0.000273285
0.000289023
0.000289023
0.000267303
0.000267303
0.000289757
0.000289757
0.00024958
0.00024958
0.000186233
0.000186233
0.00028447
0.00028447
0.000233301
0.000233301
0.00026888
0.00026888
0.000209716
0.000209716
0.000208285
0.000208285
0.000276413
0.000276413
0.000236989
0.000236989
0.000268344
0.000268344
0.000183407
0.000183407
0.000272174
0.000272174
0.000289134
0.000289134
0.000271504
0.000271504
0.000275846
0.000275846
0.000269681
0.000269681
0.000217875
0.000217875
0.000269127
0.000269127
0.000270256