/*--------------------------------*- C++ -*----------------------------------*\
  =========                 |
  \\      /  F ield         | OpenFOAM: The Open Source CFD Toolbox
   \\    /   O peration     | Website:  https://openfoam.org
    \\  /    A nd           | Version:  8
     \\/     M anipulation  |
\*---------------------------------------------------------------------------*/
FoamFile
{
    version     2.0;
    format      ascii;
    class       volScalarField;
    location    "0.85";
    object      p_rgh;
}
// * * * * * * * * * * * * * * * * * * * * * * * * * * * * * * * * * * * * * //

dimensions      [1 -1 -2 0 0 0 0];

internalField   nonuniform List<scalar> 
1924
(
135.063
-3.88314
-3.11213
-3.2348
-1.36083
-3.7857
-4.63815
-8.22434
-8.88642
-2.35414
-13.2611
-15.585
10.2517
-24.2667
-79.9281
-80.4934
10.1402
-27.994
241.149
-37.4597
10.421
8.67351
18.5656
-38.8324
14.8087
2.47867
1.96357
-9.32612
1.70946
12.8943
10.0792
16.6167
134.48
13.3212
-6.46442
12.6729
9.56934
1.07725
12.4447
9.81755
3.17918
11.6555
2.67316
18.9745
4.27705
6.1961
46.4685
2.27708
823.799
309.442
87.0727
11.8306
5.3399
481.873
11.4895
-2.55704
201.774
0.743129
-13.1771
-24.7219
18.4771
-76.8744
16.0129
16.9399
601.243
2.92007
-57.3001
7.86086
5.32541
53.3661
10.7655
-74.7217
15.6225
12.8824
10.658
13.7739
6.96384
10.7105
7.82793
15.8358
-9.12245
-3.21623
12.0071
10.5366
420.786
8.08195
-13.5007
-76.7368
818.283
10.7435
-53.7177
-2.64313
9.34105
9.20463
10.7209
589.55
4.77525
-10.9512
-20.6082
10.8687
-0.521299
10.6503
-23.6056
-9.90175
10.0922
10.6964
2.58069
12.5579
-19.9422
11.7678
6.21275
7.21367
0.351881
15.3747
10.7592
10.9978
-1.60513
-82.1093
5.42706
9.15182
697.452
857.237
113.886
13.6237
-66.0122
11.3015
14.2258
9.66199
9.35346
858.626
3.88961
0.381588
11.0342
14.9177
11.1627
6.54034
0.647699
2.77365
-45.5624
-1.40584
-6.55133
-70.2238
382.585
11.4193
-2.5534
860.93
11.5429
10.8145
-19.2724
5.03889
16.4825
858.196
14.0945
-2.49411
-4.65642
9.7418
858.513
-0.566807
-2.39263
-0.368944
14.6532
11.6719
-3.77199
857.659
20.2919
7.334
4.58335
859.97
9.28655
7.16957
2.26338
-7.84673
8.915
-11.3347
-1.7549
11.883
14.312
10.7966
13.621
-6.85916
10.4478
-82.0805
12.9895
4.57629
861.325
10.5892
13.8629
5.36368
8.50716
13.8177
11.9297
-10.9028
-3.60092
-10.6976
-2.16791
858.01
-1.97397
11.428
11.7218
11.9081
472.771
-5.3478
2.61947
-17.294
0.616257
9.19584
-17.6312
12.9149
11.4297
15.0667
857.201
3.606
-60.557
-1.86902
4.26451
12.671
-15.8841
12.3101
-21.0992
8.47167
9.85283
9.62931
2.66796
-66.1627
-20.1766
-2.49686
-6.31592
1.93787
-10.5108
10.5822
9.14652
-40.6846
11.5725
11.9065
-10.6672
16.7966
-58.2865
-28.8933
-2.93112
857.74
-80.7288
9.84889
-50.5105
10.4624
2.40693
10.8487
-27.3507
-0.290589
12.4033
5.0515
11.1517
857.325
-12.8391
1.34677
6.70757
-70.9338
2.42192
9.07745
9.97028
-33.521
7.44338
-4.81365
-10.4802
12.4313
15.2149
9.19118
9.20172
7.91344
11.5551
364.106
10.6546
16.0331
4.68824
8.47639
-39.5571
-9.368
-31.5408
-10.474
-1.72218
11.5538
472.987
859.617
-47.4621
-21.4524
692.535
13.9198
-7.58535
857.577
-41.4343
8.83005
-10.2814
11.3574
-19.2507
-61.9506
14.164
25.0216
-74.8643
10.3073
7.18142
-67.9402
858.205
-3.66063
-46.7943
-14.8482
-41.1058
4.74036
12.706
-39.0815
8.93438
9.54789
11.7558
10.3052
-24.2428
4.5276
-0.866782
15.0908
7.4005
-46.9313
-14.9582
1.79467
8.92706
12.6715
-7.63159
22.3758
1.38612
-5.18161
6.90447
6.5186
-1.03158
-11.6355
10.62
-54.002
4.40489
-43.0699
7.43507
-18.5915
-32.3743
-22.9387
-35.9322
-12.2794
-3.45246
16.1935
5.08267
10.8143
-77.3059
-77.3362
5.62477
-65.4365
20.1375
2.48296
3.02374
185.795
40.5563
-56.508
10.2673
4.33558
853.188
-55.4939
12.3186
564.474
-27.632
-69.1594
-49.2045
-41.4338
2.03873
-18.6873
5.14667
12.5689
-36.2438
-27.7679
-34.74
1.42306
6.94805
-75.3076
-2.3332
22.8116
-73.5005
-79.9294
16.1774
-69.9056
-75.048
6.76799
6.3315
-7.0546
10.8307
-28.9529
7.84577
-47.0595
-0.916169
-24.3206
26.2522
3.60875
1.6981
-53.2845
-38.5048
9.18788
1.38955
12.3975
-11.9475
-80.9221
860.844
5.76334
10.6857
11.11
858.677
-29.7171
-16.055
-59.3385
7.39586
1.57579
-25.34
3.64602
-60.8081
-31.138
-44.5425
-13.0352
-8.57044
-61.5434
6.53865
1.87177
-56.0307
11.6419
-11.7853
10.191
8.32045
-43.7163
-1.25179
12.6466
6.1749
-11.0164
-34.3231
-6.84552
-15.9654
3.67912
-42.1999
-8.10153
-36.8834
53.7045
-38.8196
15.2991
12.4221
-2.39026
-7.62167
125.938
-66.0041
-24.5917
-34.789
6.40688
1.0428
-42.7786
-80.0206
3.13748
-16.8655
-19.2372
-0.0836588
-4.23716
-24.3309
-71.2493
6.42873
-75.6811
-1.40558
7.96496
19.1889
4.34539
10.29
-46.1883
-54.9044
-46.2958
-45.0473
8.89074
0.447707
5.51106
7.42233
-18.3657
7.05072
0.184293
18.2359
-66.8511
-67.956
-81.5033
-32.4514
-48.7554
-22.7395
-57.9375
8.37652
0.418621
-5.54896
-69.8437
-14.6747
-5.5671
52.9289
-12.5163
4.61714
-2.27852
-48.2646
-12.6719
-71.2907
-31.0001
-3.2626
19.5616
-42.7393
-75.2853
12.1422
15.0687
10.0839
-11.8768
-58.5543
1.44618
3.80623
-31.3397
5.22927
-9.95383
-34.2976
-17.7122
-42.0517
-45.034
9.43014
-3.70389
-52.2776
-79.3027
10.8724
-63.7184
-5.94309
-25.5786
-27.4716
-10.378
5.94859
14.8568
0.630076
-54.8686
3.94341
-70.5778
10.2444
12.239
9.50687
-50.3458
-52.6817
6.32075
19.2909
3.27247
8.24139
20.4831
16.5681
4.43685
-17.4804
-8.85929
12.1103
20.0393
-60.7553
-20.7928
-7.24679
-20.7192
-81.2308
10.9436
-3.27149
10.2034
12.4955
74.3163
18.0969
16.2742
14.0728
6.54823
15.8163
-23.0226
11.0638
7.00936
-4.5351
-4.12029
7.72408
3.08085
-14.1971
-15.1076
-2.00866
-28.8534
5.87113
-36.3846
10.6141
10.2941
-36.4337
5.70482
1.74853
-70.253
-57.2531
-30.8474
617.164
15.4084
-44.7952
25.2248
-9.32566
16.6528
-2.2172
10.6988
375.427
461.222
67.1965
-31.1637
-37.429
2.73584
-50.9606
5.02039
584.485
-49.3883
-54.0056
24.539
11.1463
-74.2136
-9.34616
-0.814302
7.16511
18.6723
-1.9422
-71.9629
10.7425
-6.28817
9.40587
-61.0856
-27.533
9.17882
546.786
21.7555
-21.6101
-7.40959
-6.5607
1.48479
-59.4882
5.75703
11.3134
-63.8301
-16.9311
19.9872
-76.7794
-5.87205
-1.04569
27.603
10.9957
502.023
-4.43771
274.374
-10.2345
-17.8149
-16.027
-18.9896
2.94984
-1.42224
-11.5132
-58.5788
0.0784644
-58.7072
-13.7228
7.72402
3.71189
-20.0277
-1.39587
-37.5234
10.614
-23.667
3.1454
0.628757
-0.704314
13.569
6.18924
52.4611
5.27517
-13.2683
-23.8965
24.1499
-2.0083
-73.0254
3.85461
10.7131
10.2264
-3.75996
17.5784
-9.27742
-62.4947
-10.8646
-63.6628
-77.8487
74.9895
15.97
-33.2252
-36.8514
-50.1995
-40.9199
-1.62955
-61.3369
-27.9947
800.63
-26.0256
10.6119
15.3308
-58.2146
-8.11533
-7.44121
2.6875
-44.8895
22.2994
3.7855
3.58237
-0.883312
-7.50868
54.8176
-7.01051
9.91565
557.826
-8.32295
-13.6421
-4.69349
-21.9497
6.63629
3.21762
128.587
-13.7767
849.84
-3.6329
-15.1344
-14.3735
6.90882
-49.6163
648.853
4.18207
-60.1704
-2.54045
10.0175
-75.741
15.168
22.6168
520.876
8.44328
-15.8204
-14.2866
21.1977
21.8745
7.40041
-40.1016
-3.03597
-28.4745
-12.7063
-49.5379
54.984
361.455
-15.3001
-5.71514
514.835
-12.0146
64.8217
10.4567
10.4787
2.38354
-14.1142
-1.8953
-10.324
-67.4786
44.1534
24.2843
-36.9
19.7811
547.992
854.481
-53.6175
7.75327
-15.9223
-47.9282
-10.4605
-1.4869
23.612
-3.3137
3.73663
111.515
-8.50358
-66.8193
-7.64147
84.5318
-10.6489
9.54642
-27.9673
7.13651
-2.22874
84.1864
-12.0081
40.527
0.218548
-66.602
13.8781
-52.2232
2.71844
-71.3291
-8.03547
-36.2171
22.4858
22.3918
4.74799
-32.8738
-9.48378
2.51396
-8.78266
-25.3286
692.623
-10.5098
2.60898
16.9777
7.90408
-2.82944
26.2325
-3.39338
-55.595
40.3472
-60.2622
-7.45873
2.28603
7.00789
-19.0483
40.5751
550.815
3.32706
12.9164
-41.9814
128.769
-2.21747
4.88622
62.0683
-45.5858
-42.8356
120.512
-17.2561
-16.1452
13.4594
-29.7651
-6.56647
16.0206
-67.2067
-6.51681
2.488
-6.69637
-1.33228
-5.83905
1.46633
-34.1192
-13.3239
851.2
-14.8116
514.704
-8.972
-2.24813
860.74
8.2026
-8.66576
-0.974155
-47.9599
2.48751
-70.3825
-7.40213
137.024
-1.77882
-62.5906
-8.88198
14.8339
2.20769
277.849
2.42314
-29.299
-45.5371
-9.03661
9.399
64.2048
-5.2577
74.8768
-3.02591
101.887
16.4327
-11.3044
3.03189
23.3103
-65.9582
2.29545
24.992
-4.79327
19.1444
838.309
-11.6793
38.8221
2.64174
-42.2161
2.32379
-4.08023
-2.06114
-3.63367
-21.6248
-6.66357
-14.9846
13.6666
-8.80253
589.75
-36.4948
-26.1565
-24.5141
-21.3265
-51.7711
70.6934
-60.5328
14.8969
10.7138
2.31615
516.164
-4.15214
-1.61648
-30.3415
50.8353
-7.79071
-33.1471
-6.81341
26.8801
-18.1979
589.318
442.763
0.464544
47.5205
-2.46628
2.21798
-1.59095
1.82453
-59.2601
-1.01625
842.887
-16.4356
16.4329
-7.31107
-44.3526
-73.665
-4.39714
11.304
-46.7997
-2.54879
10.4802
-0.623948
8.76613
-28.4187
10.3717
-6.07147
0.33523
-4.58264
667.83
-14.9565
667.716
513.492
-3.88525
7.53939
2.28897
53.2084
-51.1355
64.3683
-2.23707
50.6043
2.75399
-17.6232
476.801
25.3102
22.307
15.9854
-35.2365
268.362
-11.8191
2.32843
-66.3116
56.5224
0.905732
-35.8632
-1.52027
-5.34351
57.4719
-6.15308
2.03874
2.36106
-4.48137
-48.8122
40.3129
-0.00924973
-5.00515
-3.33555
12.9311
-47.6749
-2.10803
67.7506
1.86587
-1.62853
4.38736
-1.21739
86.0738
70.5025
11.457
5.12434
5.69619
-10.14
7.88712
4.16239
-2.198
2.14847
-16.6674
-22.2734
17.5572
-1.78027
109.82
17.5522
-29.6567
2.34449
8.49731
-46.0176
-25.2944
-20.7391
94.9535
15.216
234.592
-38.3783
-0.140044
-19.7353
-17.0286
2.26322
-3.94206
2.15939
-1.95125
-23.4877
-26.6455
-21.736
819.322
-5.37908
-8.77875
7.92002
2.08138
7.09311
11.8583
16.5176
512.05
149.463
-16.4484
-4.09998
431.221
320.939
1.67054
-33.7808
31.4376
-1.7183
36.475
-44.2079
-74.3732
5.53236
-34.2322
-3.26615
-14.2924
-5.15342
-4.46763
4.70675
15.838
-26.0692
30.1297
-0.902689
-5.47285
-51.7999
-2.30317
-26.7972
9.40493
8.03431
-0.0726371
59.7916
3.15618
65.98
20.2641
-7.58914
-36.0939
-2.01674
-12.7203
61.7208
-37.4609
64.8928
14.1632
3.23943
-0.749209
11.7975
542.469
-23.5385
2.44202
-1.84241
16.9884
6.77065
3.10838
1055.68
50.3482
1.90455
-13.3763
1.37124
-35.0597
3.15928
1.58818
-17.7127
7.78421
27.6414
-1.18592
9.33415
-35.3819
-4.64658
13.4901
241.764
2.51659
7.81436
32.2085
30.0624
-2.74386
505.208
225.674
-3.60219
-7.44961
-2.27431
253.596
2.74033
518.887
529.353
-59.2251
26.9787
5.27541
-18.0956
3.50204
-1.07347
-1.87523
96.907
-26.3647
-18.1095
-17.1327
9.48543
9.33242
2.97827
-7.78287
-14.6729
-19.5443
13.0678
-32.8572
3.43531
1.85934
-1.16303
-16.0474
-15.0031
84.7904
1.69739
-22.1348
546.863
232.401
527.934
12.736
8.29425
-1.44526
1.39023
37.4053
1112.64
11.6925
-14.2538
-30.8937
-13.4135
-26.814
-18.0053
25.3174
16.5909
32.4721
5.66595
2.87278
507.553
7.51586
-0.199227
547.88
62.8514
7.68481
-9.12233
3.49459
-18.6522
6.32162
202.411
66.433
-70.0056
-7.62689
13.0221
117.131
12.9195
1.92198
12.2541
821.438
-25.594
20.4622
1.9103
2.28539
516.99
6.02213
-1.56155
-1.0491
6.36662
2.2289
-1.32123
111.602
57.1691
-15.5762
850.238
-0.725606
1.58604
676.045
17.7206
-26.715
15.0302
0.999063
17.2381
1.86563
-0.849753
833.38
-5.69092
-9.08913
1.30197
-18.8627
245.292
-22.4098
10.1707
795.108
-16.9088
1.98902
-15.2308
804.021
224.224
-1.48105
-0.906816
0.710961
254.404
-26.4678
81.4344
734.621
490.691
-6.99788
-15.2934
4.88474
-0.802621
-14.7965
-10.2612
-4.91618
-13.7931
0.637409
18.6329
3.53657
-18.8073
-0.427968
15.6233
121.304
176.849
-23.0455
-0.100609
8.10585
3.46502
69.7921
6.50518
3.1144
1.26704
3.41437
16.345
98.2833
-14.8952
723.144
851.059
10.2021
9.19665
4.11404
519.934
823.781
1.34277
710.169
806.483
1.27046
2.02571
-14.1204
0.0810639
-14.4604
207.133
1068.13
-14.8473
0.0447425
-21.4352
0.106163
17.4078
215.896
606.358
21.4249
-3.86577
406.572
7.99282
-8.358
0.232131
-17.9056
13.4424
-0.0949813
4.22373
1.59916
14.2421
835.133
18.8538
823.752
-8.78971
-15.2804
1.08273
-0.56098
22.8441
0.286785
0.799929
841.3
-19.5379
11.6371
-14.0935
21.4281
11.6982
-0.046485
-13.5467
7.72947
28.7154
697.477
5.5385
-12.6754
13.0945
934.196
3.38204
15.6229
524.712
-7.33035
17.9689
9.47111
0.690123
2.45129
33.11
-1.76299
-12.1469
1066.37
21.7208
-20.2152
739.477
3.00994
0.93082
300.64
-13.1375
285.365
-20.4068
-20.801
13.6804
849.709
204.152
6.12638
490.865
6.02467
16.0981
158.508
23.0252
-0.554888
-12.4446
-13.9484
647.426
10.6004
9.8834
-14.6669
15.883
1046.11
780.587
475.093
828.151
7.8931
396.157
1.13584
-17.2941
1.41742
21.7419
-16.0815
7.36145
407.065
3.00538
44.2542
48.5536
-18.1922
-12.9618
824.8
7.17484
1.59347
998.511
1.05616
303.692
883.57
339.283
20.5676
316.308
821.389
741.777
315.77
-13.5935
841.576
19.8973
0.454154
117.426
408.031
15.7214
543.725
-13.2551
1079.71
300.355
0.598731
953.899
13.6769
4.65552
855.68
7.14091
218.862
2.30276
416.463
19.6587
2.0851
-3.34401
0.185989
-12.139
12.2918
5.8129
4.15167
137.57
-8.79844
241.638
23.0753
-10.2759
3.13704
500.714
10.3782
437.02
829.541
428.128
-14.247
-11.1788
4.375
-0.215513
20.9001
902.819
19.4892
15.54
-10.7741
-10.9801
-15.2254
801.354
11.6403
-14.5538
18.061
-12.1913
-15.6876
7.02424
1144.21
4.11413
2.31291
1196.64
19.0755
-13.682
-15.5459
-1.7312
-8.90795
-15.5215
490.914
-11.5618
3.26512
1.99945
1121.68
4.3767
0.846044
-6.8172
8.57141
110.984
3.88516
-15.2097
2.97347
-16.5202
4.22857
-10.9086
816.388
-16.7987
812.423
-16.439
858.091
20.1388
847.765
17.982
23.1198
11.7044
1.58482
830.225
5.26582
21.7392
817.576
483.004
396.804
712.771
4.23071
-8.19135
-10.7305
803.93
-7.71404
-6.5939
929.762
14.056
585.996
4.85203
4.84889
21.1895
5.30192
1.28995
618.901
-12.5372
507.356
3.66766
4.51752
-10.0795
3.79213
794.175
405.817
-13.9878
261.346
480.666
5.94782
461.64
4.11066
-15.0269
485.934
17.2447
27.0132
537.217
6.17978
-2.0042
798.614
572.989
190.33
3.38229
4.98382
5.98781
-14.7926
0.59559
6.10823
-14.5172
241.234
972.975
956.434
419.831
6.38095
21.055
0.710197
-5.52798
5.83673
819.13
3.94562
5.36961
4.63172
0.552683
820.674
698.898
778.823
504.193
-3.49738
9.69224
468.218
-4.57881
6.92138
8.65899
-3.36143
4.86308
214.28
1257.73
21.4472
-1.04885
1183.34
-14.5793
535.016
7.19833
1.42436
838.571
9.78328
22.4668
22.4704
784.938
-10.5137
-14.0253
8.40011
0.11404
-10.6326
7.68613
8.66802
-10.2699
6.6978
1093.77
-7.60401
-0.546185
3.11924
827.224
-4.81992
548.176
-10.2133
840.409
121.944
792.24
-2.6077
6.51103
8.72176
-2.34179
26.2386
-10.0028
826.509
604.99
-2.72711
10.7006
-8.08516
-12.5452
8.22817
-4.59852
8.42646
-5.38271
8.21746
-22.7112
-1.00916
-13.1475
885.687
18.7544
15.0597
7.53874
-7.52441
2.06037
-13.4724
7.52247
-13.4371
805.955
-7.98111
568.306
799.385
7.37809
-4.99094
584.131
-4.5533
5.27163
-6.40332
15.3013
6.85125
27.375
21.7285
-10.1775
-7.27049
1.21316
22.5759
9.73739
-1.1038
-10.7528
11.1148
789.196
8.38062
-12.6062
8.88568
9.89229
4.31315
-4.30992
815.024
787.372
-1.46487
801.313
19.9348
-1.01565
0.475407
-1.70732
12.0999
-9.45354
-4.65801
0.597344
-8.73999
6.79457
-1.283
7.7338
8.26173
809.033
816.147
9.72192
-4.33156
2.1179
673.105
10.7284
17.5155
21.8406
7.75226
-11.5707
31.0455
-1.06427
610.61
601.707
9.99758
9.49276
7.40924
4.60848
13.6053
20.3494
2.34916
31.2664
-3.72594
19.901
10.3055
739.257
8.8357
3.10201
5.78569
799.126
793.717
-8.78795
10.5731
3.21004
0.737348
-5.89478
6.278
1.79267
12.7916
4.95588
8.7957
6.63709
2.58355
96.5336
28.4756
6.9484
5.8301
12.8577
31.2308
12.1096
14.0624
19.7425
19.8903
7.26669
8.61426
7.59244
41.9116
8.22989
-11.2402
25.7234
136.909
10.6645
62.4065
314.011
297.353
-6.05423
657.978
13.6603
83.5993
16.5322
7.68404
30.8765
42.3302
5.47293
0.970566
1.83733
15.9188
74.8141
19.6879
149.177
40.8864
14.5737
11.3283
5.89442
61.3997
253.269
249.137
100.735
14.9108
28.3362
7.08593
-7.57438
13.0599
8.17364
175.873
181.15
10.9862
6.40547
97.9707
127.682
145.55
106.65
42.3285
800.36
803.823
154.637
804.173
196.999
807.305
360.173
365.434
18.6306
343.864
337.242
286.035
227.811
376.754
630.995
484.212
67.4406
75.4152
2.29769
89.9781
75.375
53.9535
42.8659
176.726
414.597
413.075
377.722
371.346
275.932
277.578
6.90022
72.6292
12.5701
22.9492
10.4992
44.3005
688.69
721.973
836.853
536.796
899.003
763.225
772.771
4.80397
608.823
808.596
766.007
859.116
11.6228
885.936
808.84
767.108
896.667
4.11298
859.309
700.641
5.70039
878.102
386.005
10.922
836.169
529.558
518.98
859.332
857.343
856.466
856.344
858.166
858.353
7.22673
905.151
879.472
1115.79
1113.56
1115.42
882.914
10.1462
4.12105
1071.95
726.531
717.976
873.92
848.587
863.904
303.758
13.0014
1102.75
862.413
865.238
1016.48
860.604
857.057
860.508
858.68
855.058
857.943
866.012
866.664
147.842
9.93502
1115.44
9.72509
855.866
1114.76
723.686
1108.94
819.111
1112.55
10.712
1101.61
351.95
512.103
1112.55
610.114
1098
782.983
1017.4
-19.9243
768.743
12.7574
518.711
1091.19
-34.9152
1084.5
768.679
1029.41
275.712
8.9449
-44.4094
848.035
803.96
865.255
7.98343
-15.9556
806.9
-26.9282
6.74239
850.924
6.21963
-28.6216
631.427
5.30015
904.774
634.219
1098.74
848.655
5.86019
863.259
860.39
-37.4607
)
;

boundaryField
{
    patch0
    {
        type            fixedFluxPressure;
        gradient        uniform 0;
        value           nonuniform List<scalar> 
4010
(
135.063
135.063
-3.88314
-3.88314
-3.11213
-3.11213
-3.2348
-3.2348
-1.36083
-1.36083
-3.7857
-3.7857
-4.63815
-4.63815
-8.22434
-8.22434
-8.88642
-8.88642
-2.35414
-2.35414
-13.2611
-13.2611
-15.585
-15.585
10.2517
10.2517
-24.2667
-24.2667
-79.9281
-79.9281
-80.4934
-80.4934
10.1402
10.1402
-27.994
-27.994
241.149
241.149
-37.4597
-37.4597
10.421
10.421
8.67351
8.67351
18.5656
18.5656
-38.8324
-38.8324
14.8087
14.8087
2.47867
2.47867
1.96357
1.96357
-9.32612
-9.32612
1.70946
1.70946
12.8943
12.8943
10.0792
10.0792
16.6167
16.6167
134.48
134.48
13.3212
13.3212
-6.46442
-6.46442
12.6729
12.6729
9.56934
9.56934
1.07725
1.07725
12.4447
12.4447
9.81755
9.81755
3.17918
3.17918
11.6555
11.6555
2.67316
2.67316
18.9745
18.9745
4.27705
4.27705
6.1961
6.1961
46.4685
46.4685
2.27708
2.27708
823.799
823.799
309.442
309.442
87.0727
87.0727
11.8306
11.8306
5.3399
5.3399
481.873
481.873
11.4895
11.4895
-2.55704
-2.55704
201.774
201.774
0.743129
0.743129
-13.1771
-13.1771
-24.7219
-24.7219
18.4771
18.4771
-76.8744
-76.8744
16.0129
16.0129
16.9399
16.9399
601.243
601.243
2.92007
2.92007
-57.3001
-57.3001
7.86086
7.86086
5.32541
5.32541
53.3661
53.3661
10.7655
10.7655
-74.7217
-74.7217
15.6225
15.6225
12.8824
12.8824
10.658
10.658
13.7739
13.7739
6.96384
6.96384
10.7105
10.7105
7.82793
7.82793
15.8358
15.8358
-9.12245
-9.12245
-3.21623
-3.21623
12.0071
12.0071
10.5366
10.5366
420.786
420.786
8.08195
8.08195
-13.5007
-13.5007
-76.7368
-76.7368
818.283
818.283
10.7435
10.7435
-53.7177
-53.7177
-2.64313
-2.64313
9.34105
9.34105
9.20463
9.20463
10.7209
10.7209
589.55
589.55
4.77525
4.77525
-10.9512
-10.9512
-20.6082
-20.6082
10.8687
10.8687
-0.521299
-0.521299
10.6503
10.6503
-23.6056
-23.6056
-9.90175
-9.90175
10.0922
10.0922
10.6964
10.6964
2.58069
2.58069
12.5579
12.5579
-19.9422
-19.9422
11.7678
11.7678
6.21275
6.21275
7.21367
7.21367
0.351881
0.351881
15.3747
15.3747
10.7592
10.7592
10.9978
10.9978
-1.60513
-1.60513
-82.1093
-82.1093
5.42706
5.42706
9.15182
9.15182
697.452
697.452
857.237
857.237
113.886
113.886
13.6237
13.6237
-66.0122
-66.0122
11.3015
11.3015
14.2258
14.2258
9.66199
9.66199
9.35346
9.35346
858.626
858.626
3.88961
3.88961
0.381588
0.381588
11.0342
11.0342
14.9177
14.9177
11.1627
11.1627
6.54034
6.54034
0.647699
0.647699
2.77365
2.77365
-45.5624
-45.5624
-1.40584
-1.40584
-6.55133
-6.55133
-70.2238
-70.2238
382.585
382.585
382.585
11.4193
11.4193
11.4193
-2.5534
-2.5534
860.93
860.93
11.5429
11.5429
10.8145
10.8145
-19.2724
-19.2724
5.03889
5.03889
16.4825
16.4825
858.196
858.196
858.196
14.0945
14.0945
-2.49411
-2.49411
-4.65642
-4.65642
9.7418
9.7418
858.513
858.513
-0.566807
-0.566807
-2.39263
-2.39263
-0.368944
-0.368944
14.6532
14.6532
11.6719
11.6719
-3.77199
-3.77199
857.659
857.659
20.2919
20.2919
7.334
7.334
4.58335
4.58335
859.97
859.97
9.28655
9.28655
7.16957
7.16957
2.26338
2.26338
-7.84673
-7.84673
8.915
8.915
-11.3347
-11.3347
-1.7549
-1.7549
11.883
11.883
14.312
14.312
10.7966
10.7966
13.621
13.621
-6.85916
-6.85916
10.4478
10.4478
-82.0805
-82.0805
12.9895
12.9895
4.57629
4.57629
861.325
861.325
10.5892
10.5892
13.8629
13.8629
5.36368
5.36368
8.50716
8.50716
13.8177
13.8177
11.9297
11.9297
-10.9028
-10.9028
-3.60092
-3.60092
-10.6976
-10.6976
-2.16791
-2.16791
858.01
858.01
858.01
-1.97397
-1.97397
11.428
11.428
11.7218
11.7218
11.9081
11.9081
472.771
472.771
-5.3478
-5.3478
2.61947
2.61947
-17.294
-17.294
0.616257
0.616257
9.19584
9.19584
-17.6312
-17.6312
12.9149
12.9149
11.4297
11.4297
15.0667
15.0667
15.0667
857.201
857.201
3.606
3.606
-60.557
-60.557
-1.86902
-1.86902
4.26451
4.26451
12.671
12.671
-15.8841
-15.8841
12.3101
12.3101
-21.0992
-21.0992
8.47167
8.47167
9.85283
9.85283
9.62931
9.62931
2.66796
2.66796
-66.1627
-66.1627
-20.1766
-20.1766
-2.49686
-2.49686
-6.31592
-6.31592
1.93787
1.93787
-10.5108
-10.5108
10.5822
10.5822
9.14652
9.14652
-40.6846
-40.6846
11.5725
11.5725
11.9065
11.9065
-10.6672
-10.6672
16.7966
16.7966
16.7966
-58.2865
-58.2865
-28.8933
-28.8933
-2.93112
-2.93112
857.74
857.74
857.74
-80.7288
-80.7288
9.84889
9.84889
-50.5105
-50.5105
10.4624
10.4624
2.40693
2.40693
10.8487
10.8487
-27.3507
-27.3507
-0.290589
-0.290589
12.4033
12.4033
5.0515
5.0515
11.1517
11.1517
857.325
857.325
-12.8391
-12.8391
1.34677
1.34677
6.70757
6.70757
-70.9338
-70.9338
2.42192
2.42192
9.07745
9.07745
9.97028
9.97028
-33.521
-33.521
7.44338
7.44338
-4.81365
-4.81365
-10.4802
-10.4802
12.4313
12.4313
15.2149
15.2149
9.19118
9.19118
9.20172
9.20172
7.91344
7.91344
11.5551
11.5551
364.106
364.106
10.6546
10.6546
16.0331
16.0331
4.68824
4.68824
8.47639
8.47639
-39.5571
-39.5571
-9.368
-9.368
-31.5408
-31.5408
-10.474
-10.474
-1.72218
-1.72218
11.5538
11.5538
472.987
472.987
859.617
859.617
859.617
-47.4621
-47.4621
-21.4524
-21.4524
692.535
692.535
13.9198
13.9198
-7.58535
-7.58535
857.577
857.577
-41.4343
-41.4343
8.83005
8.83005
-10.2814
-10.2814
11.3574
11.3574
-19.2507
-19.2507
-61.9506
-61.9506
14.164
14.164
25.0216
25.0216
-74.8643
-74.8643
10.3073
10.3073
7.18142
7.18142
-67.9402
-67.9402
858.205
858.205
858.205
-3.66063
-3.66063
-46.7943
-46.7943
-14.8482
-14.8482
-41.1058
-41.1058
4.74036
4.74036
12.706
12.706
-39.0815
-39.0815
8.93438
8.93438
9.54789
9.54789
11.7558
11.7558
10.3052
10.3052
-24.2428
-24.2428
4.5276
4.5276
-0.866782
-0.866782
15.0908
15.0908
7.4005
7.4005
-46.9313
-46.9313
-14.9582
-14.9582
1.79467
1.79467
8.92706
8.92706
12.6715
12.6715
-7.63159
-7.63159
22.3758
22.3758
1.38612
1.38612
-5.18161
-5.18161
6.90447
6.90447
6.5186
6.5186
-1.03158
-1.03158
-11.6355
-11.6355
10.62
10.62
-54.002
-54.002
4.40489
4.40489
-43.0699
-43.0699
7.43507
7.43507
-18.5915
-18.5915
-32.3743
-32.3743
-22.9387
-22.9387
-35.9322
-35.9322
-12.2794
-12.2794
-3.45246
-3.45246
16.1935
16.1935
5.08267
5.08267
10.8143
10.8143
-77.3059
-77.3059
-77.3362
-77.3362
5.62477
5.62477
-65.4365
-65.4365
20.1375
20.1375
2.48296
2.48296
3.02374
3.02374
185.795
185.795
40.5563
40.5563
-56.508
-56.508
10.2673
10.2673
4.33558
4.33558
853.188
853.188
-55.4939
-55.4939
12.3186
12.3186
564.474
564.474
-27.632
-27.632
-69.1594
-69.1594
-49.2045
-49.2045
-41.4338
-41.4338
2.03873
2.03873
-18.6873
-18.6873
5.14667
5.14667
12.5689
12.5689
-36.2438
-36.2438
-27.7679
-27.7679
-34.74
-34.74
1.42306
1.42306
6.94805
6.94805
-75.3076
-75.3076
-2.3332
-2.3332
22.8116
22.8116
-73.5005
-73.5005
-79.9294
-79.9294
16.1774
16.1774
-69.9056
-69.9056
-75.048
-75.048
6.76799
6.76799
6.3315
6.3315
-7.0546
-7.0546
10.8307
10.8307
-28.9529
-28.9529
7.84577
7.84577
-47.0595
-47.0595
-0.916169
-0.916169
-24.3206
-24.3206
26.2522
26.2522
3.60875
3.60875
1.6981
1.6981
-53.2845
-53.2845
-38.5048
-38.5048
9.18788
9.18788
9.18788
1.38955
1.38955
12.3975
12.3975
-11.9475
-11.9475
-80.9221
-80.9221
860.844
860.844
5.76334
5.76334
10.6857
10.6857
11.11
11.11
858.677
858.677
858.677
-29.7171
-29.7171
-16.055
-16.055
-59.3385
-59.3385
7.39586
7.39586
1.57579
1.57579
-25.34
-25.34
3.64602
3.64602
-60.8081
-60.8081
-31.138
-31.138
-44.5425
-44.5425
-13.0352
-13.0352
-8.57044
-8.57044
-61.5434
-61.5434
6.53865
6.53865
1.87177
1.87177
-56.0307
-56.0307
11.6419
11.6419
-11.7853
-11.7853
10.191
10.191
8.32045
8.32045
-43.7163
-43.7163
-1.25179
-1.25179
12.6466
12.6466
6.1749
6.1749
-11.0164
-11.0164
-34.3231
-34.3231
-6.84552
-6.84552
-15.9654
-15.9654
3.67912
3.67912
-42.1999
-42.1999
-8.10153
-8.10153
-36.8834
-36.8834
53.7045
53.7045
-38.8196
-38.8196
15.2991
15.2991
12.4221
12.4221
-2.39026
-2.39026
-7.62167
-7.62167
125.938
125.938
-66.0041
-66.0041
-24.5917
-24.5917
-24.5917
-34.789
-34.789
6.40688
6.40688
1.0428
1.0428
-42.7786
-42.7786
-80.0206
-80.0206
3.13748
3.13748
-16.8655
-16.8655
-19.2372
-19.2372
-0.0836588
-0.0836588
-4.23716
-4.23716
-24.3309
-24.3309
-71.2493
-71.2493
6.42873
6.42873
-75.6811
-75.6811
-1.40558
-1.40558
7.96496
7.96496
19.1889
19.1889
4.34539
4.34539
10.29
10.29
-46.1883
-46.1883
-54.9044
-54.9044
-46.2958
-46.2958
-45.0473
-45.0473
8.89074
8.89074
0.447707
0.447707
5.51106
5.51106
7.42233
7.42233
-18.3657
-18.3657
7.05072
7.05072
0.184293
0.184293
18.2359
18.2359
-66.8511
-66.8511
-67.956
-67.956
-81.5033
-81.5033
-32.4514
-32.4514
-48.7554
-48.7554
-22.7395
-22.7395
-57.9375
-57.9375
8.37652
8.37652
0.418621
0.418621
-5.54896
-5.54896
-69.8437
-69.8437
-14.6747
-14.6747
-5.5671
-5.5671
52.9289
52.9289
-12.5163
-12.5163
4.61714
4.61714
-2.27852
-2.27852
-48.2646
-48.2646
-12.6719
-12.6719
-71.2907
-71.2907
-31.0001
-31.0001
-3.2626
-3.2626
19.5616
19.5616
-42.7393
-42.7393
-75.2853
-75.2853
12.1422
12.1422
15.0687
15.0687
10.0839
10.0839
-11.8768
-11.8768
-58.5543
-58.5543
1.44618
1.44618
3.80623
3.80623
-31.3397
-31.3397
5.22927
5.22927
-9.95383
-9.95383
-34.2976
-34.2976
-17.7122
-17.7122
-42.0517
-42.0517
-45.034
-45.034
9.43014
9.43014
-3.70389
-3.70389
-52.2776
-52.2776
-79.3027
-79.3027
10.8724
10.8724
-63.7184
-63.7184
-5.94309
-5.94309
-25.5786
-25.5786
-27.4716
-27.4716
-10.378
-10.378
5.94859
5.94859
14.8568
14.8568
0.630076
0.630076
-54.8686
-54.8686
3.94341
3.94341
-70.5778
-70.5778
10.2444
10.2444
12.239
12.239
9.50687
9.50687
-50.3458
-50.3458
-52.6817
-52.6817
6.32075
6.32075
19.2909
19.2909
3.27247
3.27247
8.24139
8.24139
20.4831
20.4831
16.5681
16.5681
4.43685
4.43685
-17.4804
-17.4804
-8.85929
-8.85929
12.1103
12.1103
20.0393
20.0393
-60.7553
-60.7553
-20.7928
-20.7928
-7.24679
-7.24679
-20.7192
-20.7192
-81.2308
-81.2308
10.9436
10.9436
-3.27149
-3.27149
10.2034
10.2034
12.4955
12.4955
74.3163
74.3163
18.0969
18.0969
16.2742
16.2742
14.0728
14.0728
6.54823
6.54823
15.8163
15.8163
-23.0226
-23.0226
11.0638
11.0638
7.00936
7.00936
-4.5351
-4.5351
-4.12029
-4.12029
7.72408
7.72408
3.08085
3.08085
-14.1971
-14.1971
-15.1076
-15.1076
-2.00866
-2.00866
-28.8534
-28.8534
5.87113
5.87113
-36.3846
-36.3846
10.6141
10.6141
10.2941
10.2941
-36.4337
-36.4337
5.70482
5.70482
1.74853
1.74853
-70.253
-70.253
-57.2531
-57.2531
-30.8474
-30.8474
617.164
617.164
15.4084
15.4084
-44.7952
-44.7952
25.2248
25.2248
-9.32566
-9.32566
16.6528
16.6528
-2.2172
-2.2172
10.6988
10.6988
375.427
375.427
461.222
461.222
67.1965
67.1965
-31.1637
-31.1637
-37.429
-37.429
2.73584
2.73584
-50.9606
-50.9606
5.02039
5.02039
584.485
584.485
-49.3883
-49.3883
-54.0056
-54.0056
24.539
24.539
11.1463
11.1463
-74.2136
-74.2136
-9.34616
-9.34616
-0.814302
-0.814302
7.16511
7.16511
18.6723
18.6723
-1.9422
-1.9422
-71.9629
-71.9629
10.7425
10.7425
-6.28817
-6.28817
9.40587
9.40587
-61.0856
-61.0856
-27.533
-27.533
9.17882
9.17882
546.786
546.786
21.7555
21.7555
-21.6101
-21.6101
-7.40959
-7.40959
-6.5607
-6.5607
1.48479
1.48479
-59.4882
-59.4882
5.75703
5.75703
11.3134
11.3134
-63.8301
-63.8301
-16.9311
-16.9311
19.9872
19.9872
-76.7794
-76.7794
-5.87205
-5.87205
-1.04569
-1.04569
27.603
27.603
10.9957
10.9957
502.023
502.023
-4.43771
-4.43771
274.374
274.374
-10.2345
-10.2345
-17.8149
-17.8149
-16.027
-16.027
-18.9896
-18.9896
2.94984
2.94984
-1.42224
-1.42224
-11.5132
-11.5132
-58.5788
-58.5788
0.0784644
0.0784644
-58.7072
-58.7072
-13.7228
-13.7228
7.72402
7.72402
3.71189
3.71189
-20.0277
-20.0277
-1.39587
-1.39587
-37.5234
-37.5234
10.614
10.614
-23.667
-23.667
3.1454
3.1454
0.628757
0.628757
-0.704314
-0.704314
13.569
13.569
6.18924
6.18924
52.4611
52.4611
5.27517
5.27517
-13.2683
-13.2683
-23.8965
-23.8965
24.1499
24.1499
-2.0083
-2.0083
-73.0254
-73.0254
3.85461
3.85461
10.7131
10.7131
10.2264
10.2264
-3.75996
-3.75996
17.5784
17.5784
-9.27742
-9.27742
-62.4947
-62.4947
-10.8646
-10.8646
-63.6628
-63.6628
-77.8487
-77.8487
74.9895
74.9895
15.97
15.97
-33.2252
-33.2252
-36.8514
-36.8514
-50.1995
-50.1995
-40.9199
-40.9199
-1.62955
-1.62955
-61.3369
-61.3369
-27.9947
-27.9947
800.63
800.63
-26.0256
-26.0256
10.6119
10.6119
15.3308
15.3308
-58.2146
-58.2146
-8.11533
-8.11533
-7.44121
-7.44121
2.6875
2.6875
-44.8895
-44.8895
22.2994
22.2994
3.7855
3.7855
3.58237
3.58237
-0.883312
-0.883312
-7.50868
-7.50868
54.8176
54.8176
-7.01051
-7.01051
9.91565
9.91565
557.826
557.826
-8.32295
-8.32295
-13.6421
-13.6421
-4.69349
-4.69349
-21.9497
-21.9497
6.63629
6.63629
3.21762
3.21762
128.587
128.587
-13.7767
-13.7767
849.84
849.84
-3.6329
-3.6329
-15.1344
-15.1344
-14.3735
-14.3735
6.90882
6.90882
-49.6163
-49.6163
648.853
648.853
4.18207
4.18207
-60.1704
-60.1704
-2.54045
-2.54045
10.0175
10.0175
-75.741
-75.741
15.168
15.168
22.6168
22.6168
22.6168
520.876
520.876
8.44328
8.44328
-15.8204
-15.8204
-14.2866
-14.2866
21.1977
21.1977
21.8745
21.8745
7.40041
7.40041
-40.1016
-40.1016
-3.03597
-3.03597
-28.4745
-28.4745
-12.7063
-12.7063
-49.5379
-49.5379
54.984
54.984
361.455
361.455
-15.3001
-15.3001
-5.71514
-5.71514
514.835
514.835
-12.0146
-12.0146
64.8217
64.8217
10.4567
10.4567
10.4787
10.4787
2.38354
2.38354
-14.1142
-14.1142
-1.8953
-1.8953
-10.324
-10.324
-67.4786
-67.4786
44.1534
44.1534
24.2843
24.2843
-36.9
-36.9
19.7811
19.7811
547.992
547.992
854.481
854.481
-53.6175
-53.6175
7.75327
7.75327
-15.9223
-15.9223
-47.9282
-47.9282
-10.4605
-10.4605
-1.4869
-1.4869
23.612
23.612
-3.3137
-3.3137
3.73663
3.73663
111.515
111.515
-8.50358
-8.50358
-66.8193
-66.8193
-7.64147
-7.64147
84.5318
84.5318
-10.6489
-10.6489
9.54642
9.54642
-27.9673
-27.9673
7.13651
7.13651
-2.22874
-2.22874
84.1864
84.1864
-12.0081
-12.0081
40.527
40.527
0.218548
0.218548
-66.602
-66.602
13.8781
13.8781