/*--------------------------------*- C++ -*----------------------------------*\
  =========                 |
  \\      /  F ield         | OpenFOAM: The Open Source CFD Toolbox
   \\    /   O peration     | Website:  https://openfoam.org
    \\  /    A nd           | Version:  8
     \\/     M anipulation  |
\*---------------------------------------------------------------------------*/
FoamFile
{
    version     2.0;
    format      ascii;
    class       surfaceScalarField;
    location    "0.85";
    object      phi;
}
// * * * * * * * * * * * * * * * * * * * * * * * * * * * * * * * * * * * * * //

dimensions      [0 3 -1 0 0 0 0];

internalField   nonuniform List<scalar> 
2805
(
-0.000324815
0.000788319
-0.000463504
-5.88788e-05
-0.000265936
-0.0084453
-0.00323171
0.011677
0.00146069
-0.00990599
-0.000260597
0.000201718
-0.00882165
0.0102823
-0.000216937
-0.00860471
-0.0111024
0.0108855
-0.00164255
-0.00945988
-0.0104274
0.00719569
-0.0135995
0.0119569
-6.49777e-05
-0.0135345
-0.000850577
0.00120859
-0.000358008
-0.0106921
0.0106271
0.00564116
-0.00199007
-0.00365109
0.00198701
0.00365415
-0.000899246
4.86689e-05
-0.000461966
-0.0102301
0.000674571
0.000113749
-0.0113202
0.0108582
-3.11335e-05
-0.000191559
0.000222693
-0.00362642
0.00222956
0.00139686
0.000116652
-0.00133783
0.00122118
-0.00215668
-0.00916352
-0.00182177
-0.00180465
-0.0025868
-0.00503891
0.00762571
0.0125092
-0.015096
0.00816375
-0.00744933
-0.000714417
-0.00522896
0.00601575
-0.000786782
-0.00370636
0.00406015
-0.000353798
0.000410695
-0.000294043
0.000765426
-0.00258719
0.000679488
-0.000311057
-0.000368432
-0.000615549
-0.000283697
-0.000539327
0.00870308
-0.000767562
-0.000570267
0.0031852
-0.00241977
-0.00646595
0.00123699
-0.00169529
-0.00201107
-0.000204854
0.00550774
-0.00232254
-0.000529126
0.000497993
0.000468827
0.000103734
0.00111744
0.0113249
-0.00364441
-0.00768051
-0.00450565
0.00448593
1.9713e-05
-0.000530892
0.000554721
-2.38297e-05
-0.00371415
0.012325
-0.00861089
-0.000290893
-4.45012e-05
0.000335394
0.000152198
0.000320126
-0.000472324
0.000327898
-0.00125673
0.000928828
0.000679459
0.00290238
-0.000672817
0.00114174
-0.000813844
-0.00280707
1.55666e-05
0.0027915
-0.0109667
0.000143679
0.00761077
0.00878864
-0.00117788
-0.0230027
0.00966771
0.013335
0.000863716
-0.000759982
0.00929011
-0.0073031
0.000341982
0.000521734
-0.00191391
-0.00325137
0.00516528
0.000108492
0.00103325
0.00233362
0.00999143
-0.0178264
0.000425774
0.0174006
0.000528282
-0.00129584
0.0015101
-7.55544e-05
-0.00118117
-0.000576315
8.181e-05
0.000494505
0.000551842
0.00873827
-0.0036092
0.00191288
0.00214727
0.00239845
-0.000485574
-0.000103945
-0.00037015
0.000474095
0.00985297
-0.00751935
0.00108263
0.00131583
-0.0031467
-0.0054642
0.000266427
0.0117291
-0.0124282
0.000699089
0.0182437
-0.00573449
-1.46272e-05
-0.00575804
0.00577267
-0.000330688
0.000139129
0.000215984
0.000286967
0.000241315
0.00133931
0.0043538
-0.00634387
-0.000138695
-0.0005552
-2.11155e-05
-0.00464416
-0.0131823
0.0128883
0.00535543
0.00167887
0.00891648
-0.00726537
-0.0016511
-0.000529475
-2.57253e-05
0.000794907
-0.000686415
0.000998705
0.00885426
0.0120428
-0.000313674
-0.0187989
-0.00420377
-0.000712332
0.000608387
-0.0103639
0.0117319
-0.001368
-0.000860163
-0.00448278
-0.0143161
0.0183855
-0.00549723
0.00559091
0.00332557
-0.00543129
0.00147721
0.00395409
-0.00921232
-0.0021025
0.0113148
0.00685757
-0.00126667
0.0203408
-0.0106731
-0.00558651
-0.00556961
0.00656831
0.0084488
-0.0069387
-0.00672655
0.00575925
-0.000226232
-0.00553302
0.0020744
-0.0052211
8.04742e-05
5.86548e-05
0.00131307
-2.70755e-05
0.00368122
0.00227482
-0.00139422
-0.000880601
-0.00544495
-0.000312496
0.00052848
-0.000268476
0.000277538
-9.06162e-06
0.000542818
5.93585e-05
-0.0119983
0.0124241
-0.00318752
0.0122207
-0.00903316
-0.000757379
0.000387229
0.00171642
-0.00063379
0.00286229
-6.85082e-05
0.000182152
-0.000113643
0.000682667
-0.00625228
0.00251962
-0.000865314
-0.000463861
0.00132918
0.00574462
-0.000180704
0.0123149
-0.00898937
0.00904121
-0.00780422
0.0079265
-0.0100832
0.00197653
0.0113307
-0.0114465
-0.000549484
0.000549484
0.000468334
-0.000468334
-0.00972591
0.011039
-0.000121825
5.33164e-05
0.00367005
-0.000630522
0.00708633
0.0132545
0.000139545
0.00213527
-0.00799935
0.00224131
-0.000268476
-0.000783745
2.63661e-05
-0.00928598
0.0118056
0.000556433
0.0050775
0.00714318
0.000256114
2.14244e-05
-0.00917221
-0.00602521
0.00670788
0.000976178
-0.00567462
0.00469844
-0.00487428
0.00464805
-0.00039122
0.001753
-0.000261034
-7.44202e-06
0.00339442
-0.00551788
0.00212347
0.00328179
0.0163826
-0.0113051
0.000103863
0.000152251
-1.34209e-05
-0.00543153
-0.00612708
0.000585065
-0.000896121
-0.0107814
0.0113378
-0.00257291
-0.00285839
0.0141817
0.00036401
0.00126025
-0.00184206
0.000581818
-0.00522808
-0.000144527
0.000639032
0.000517767
-0.00108803
-0.00968469
0.0114377
0.0115125
-0.00417819
-0.00733427
-0.00161945
0.00159238
-0.00120121
-0.00212869
0.00332989
0.0067068
0.00967583
0.000158621
-0.000203122
0.000980354
-0.000425632
-0.000729752
-5.39934e-05
-0.00691213
0.0160203
-0.00910817
-0.0062657
-1.85873e-05
0.00466664
0.004071
-0.000400947
0.000104123
0.000755584
-0.00678079
0.00165311
0.0189612
-0.0122544
-0.000261034
-0.00957809
0.0193903
-0.00981221
0.00152308
-0.000262836
0.0064352
-0.00491212
-0.000194881
-6.79549e-05
9.99017e-05
0.0124768
-0.00919505
0.0123214
-0.0122173
0.00460033
-0.011092
0.0127451
-0.000898279
0.000168527
-0.000604156
-0.000463861
-0.000258116
-2.91861e-06
0.00518774
0.00547177
-0.00995952
0.00448775
0.00787069
0.0110905
0.00644221
0.00319363
0.0188162
-0.0117298
0.00222893
0.00122938
-0.000143079
-0.000490711
0.00937211
0.00674884
0.00117171
-0.00367615
0.00914792
-0.000260348
0.0117997
0.00759064
-0.00784111
0.0085967
-0.00194342
-0.00389748
0.00584089
0.0199533
-0.0120827
-0.00128688
0.001092
0.00134474
-0.00132918
0.0256208
-0.00977978
-0.015841
0.00225702
0.0213769
-0.00957726
-0.00567462
-0.00302835
-0.00693117
-0.0102311
0.0114605
0.0128776
-0.0117059
-0.000258116
0.00222771
-0.00384716
0.00771826
-0.00311793
-0.00922627
0.00619792
-0.00050926
-0.000389019
0.00105402
-0.00469844
-0.000629881
0.0108426
-0.011103
0.00921827
0.000114619
-0.00451632
-0.00160351
-0.000165847
-9.22689e-05
0.00850507
0.0114483
-0.00400732
-0.00118568
-0.00508002
0.00353179
-0.00720793
0.00664925
0.000976464
-0.00229144
0.00355284
-0.0012614
0.00445999
0.000611496
0.0141358
0.000623168
-0.0003522
0.0145339
0.00330825
-0.00135178
-0.00123542
-0.000809469
0.000323895
4.23622e-05
0.000455631
-0.000948769
-0.00190962
0.00240028
-0.000573314
-0.00160939
0.000322512
-0.00460493
-0.000876408
-0.0035013
0.00756416
-0.00406286
0.00890462
0.0167162
-0.00643314
-0.00599508
-0.000475855
0.0136269
0.00775
0.00779828
0.00334901
-0.000212594
-0.000165847
-0.0144239
0.0203213
-0.0118162
0.000152096
0.000376385
0.000222189
-0.0080633
-0.000182152
1.63048e-05
-0.0103367
0.0109482
0.00542683
0.0126157
-0.0119925
0.000547459
-0.00255853
0.0221782
-0.00855133
4.12077e-05
-0.00697238
-0.000413669
-0.00487096
-0.000646924
-0.00315821
0.00669
-0.000763974
0.000254715
-0.00109185
-0.00716673
-0.00390759
-0.000225262
-0.00900101
0.00430893
0.0145072
0.0119266
-0.0124024
-0.0059922
0.011409
-0.00541683
-0.000397488
0.000439851
-0.00813851
0.00791325
5.1538e-05
-0.000931663
-0.000461354
0.000834247
-0.000694702
0.00942998
0.0108913
-1.76083e-05
-0.00257661
0.00259421
-0.00796647
-0.000755496
0.00680154
0.00158986
0.000533048
0.0178921
-0.00026201
-0.00164196
3.25642e-05
0.0075301
-0.0103428
0.00547185
-0.00908649
-0.0060095
-0.00197695
-0.00496066
0.00693761
0.011869
0.00157196
-0.000687712
-0.0114718
0.011694
0.00023108
0.00306691
0.0143337
-0.00224398
0.00222637
-0.00154421
-0.000594734
0.000104022
0.0148893
0.00728893
0.0222396
0.0127849
-0.0122519
0.019839
-0.010409
-0.00446244
-0.00587443
-0.010138
0.000306424
-0.00211107
-0.000413423
-0.000350552
-0.00385294
0.000694729
0.0082286
0.000509673
0.0101834
0.0022407
-0.000448601
0.00128285
0.000118882
0.000349944
0.0034333
-0.00130984
0.00267628
-0.00964866
-0.000642059
-0.00135755
-0.00315877
-7.61493e-05
0.000142067
-6.59179e-05
-0.00892792
0.0105178
-0.00054905
0.000600588
0.0011178
-0.000322893
0.0216251
-0.00673578
-0.00353335
-0.00363337
-0.00632473
0.0141083
0.00260785
-0.00123289
0.0082827
-0.00227018
-0.00302141
0.00137946
0.0104079
0.0094311
0.000968719
0.00171759
-0.0098561
0.0087839
-0.000847811
-0.00735697
0.00958468
-0.00646608
0.0118215
-0.000639032
0.00069839
-0.00738629
-0.00295636
0.000511569
-0.00174699
-0.00065475
0.0108381
0.00757385
-0.00326717
0.00780618
0.0202322
0.000263644
-0.00687181
0.00858941
-0.000270838
0.0171752
0.000183173
-0.00396918
-3.95314e-05
-0.00220444
0.0153968
0.0123903
0.00194348
0.0152813
-0.0143126
-0.00191349
0.00288995
-0.00159951
-0.00310617
-0.0083656
0.0041909
-6.54091e-05
-5.64155e-05
-0.000615094
-0.000476753
-0.000808441
0.000395018
0.00074918
0.000103863
0.0168659
0.00537365
-0.000635871
-0.00828017
0.00891604
0.014631
-0.00156354
0.0150866
0.00653844
-0.00116531
0.00112578
0.00373388
-0.0126618
0.0074913
0.0190131
-0.00860527
0.011383
-0.0070741
-0.000682798
-0.00575034
0.00642764
-0.010061
0.000397628
-0.00145386
0.00105624
0.0058806
-0.00322102
-0.00167361
-0.0013478
-0.00663095
-0.000387344
0.000382373
-0.00161527
0.0046233
-0.010948
-0.00219744
-0.00576903
-0.00573569
0.00317716
-0.000191022
-0.00207916
-0.0115239
0.0111717
0.0194738
-0.00564346
0.00386084
6.55346e-05
0.000372193
-0.000437727
0.00487233
0.000297605
-0.0052328
4.38953e-05
0.000468773
-0.000512669
-0.0068213
-0.00136461
-0.000997759
-0.00412677
0.00430995
0.01042
-0.00196652
0.0013196
0.0123936
-0.00155545
0.0203238
-0.00523712
-0.000511073
0.00997999
0.0163379
0.000837364
-0.00136398
-0.00239547
0.0213113
-0.012544
0.00943783
-0.00123682
0.01773
0.00283947
-0.00971128
-0.00678798
-0.000598311
-0.000416385
0.00048192
0.0049566
0.00261724
-0.00168603
-0.0041884
4.56082e-05
-0.00164511
-0.000833746
7.82496e-05
0.00171889
-0.000407811
-0.00040063
0.0182813
0.0160895
-0.00145856
0.0110455
0.00796765
0.00412693
-0.00639586
-0.000338297
-0.00122525
-0.000611379
-0.000553935
0.00216464
-0.00242665
-0.0054407
-0.00309679
0.00142318
-0.0048448
-0.00626436
0.00265517
-0.00471362
0.00844749
0.00196732
0.0104263
0.00141831
0.00277259
-0.00910215
0.0139745
0.0186281
0.0145341
-0.00203355
-0.00195356
-0.00523195
0.00552955
0.00505045
-0.0124074
-0.00995631
0.0138172
-0.0102607
0.000483746
0.00121538
-0.000239186
-0.00272411
0.00794123
-0.0111622
0.00097845
-0.0076094
0.00692392
0.0186291
0.000844718
-0.000922003
-0.0072945
-0.00304831
-0.00300681
-0.00815196
-0.00234556
0.000433268
-0.00179788
-0.000338675
0.00222525
0.00915778
-0.0100953
3.42577e-05
-0.00116744
-6.93761e-05
-0.00090996
-0.00148551
0.00599535
-0.0112282
-0.00112545
-0.00214172
-0.00477189
0.0194664
0.011734
0.0195336
-0.00125232
0.0180751
-0.00121185
0.0117205
-0.00497523
0.00403555
-0.000129069
0.000610988
-0.0106936
-8.8038e-05
-0.00555542
-0.00371593
0.0211651
0.0190094
0.00221784
-0.00248868
-0.00111633
0.000356345
-0.00239269
0.0174104
-0.00636489
0.00057864
0.00114025
0.00298868
-0.0077023
-0.00146389
7.75901e-05
0.000209377
-0.000993175
0.000585364
-0.0042176
0.0187517
0.00536921
-0.0011574
-0.00193939
0.000121913
-0.00207548
-0.00061588
-0.00141767
-0.0120234
0.00472891
-0.000106964
0.000373391
-0.0016022
0.00363509
-0.00907579
-0.00564783
0.00686321
-0.0033324
-0.00240328
-0.00666815
0.00341678
-0.00483512
0.0152614
-0.00829941
-0.00424459
-0.000118273
0.0175963
0.00103182
-0.00107457
-0.000818544
0.000579358
-0.00135452
0.000432521
0.000475218
-0.00059856
0.000800164
0.000128664
0.00188148
-0.00492978
-0.0030872
-0.00167597
0.000449571
0.00113641
0.018441
-0.00174497
-0.00121255
-0.00427644
0.00398377
-0.00116776
-0.00210139
-0.00397431
0.00208731
-0.0014239
0.0201089
-0.000642434
0.00276119
-0.00327227
0.0214139
-0.00333879
-0.00136602
0.000277989
5.63428e-05
0.00872703
-0.0117338
0.000232709
-0.00162693
9.63945e-05
-0.00130824
0.00110548
0.00581844
0.00554255
0.0188565
0.00019469
0.00083856
0.000249381
-0.0113537
0.000191455
-0.000626544
0.000177943
0.00249231
-0.0072642
-0.0046661
-0.00048985
-0.00190284
-0.000207556
-0.000210339
-0.000362974
0.000994854
0.000502055
-0.00250113
0.0171963
-0.00689405
0.00112502
0.0139166
-0.000267664
0.00140791
0.000608387
0.000509414
-0.0113194
0.011595
0.0058154
-0.00688619
0.000218041
-0.00144505
-1.88432e-05
0.00734248
0.0132749
-0.000970873
-0.00387393
-0.000183441
-0.00102911
0.000620732
-0.00124728
-0.00256533
0.00143271
-0.00115665
-0.0036772
-0.00658355
-0.00132128
0.00546302
0.00979837
0.0126138
0.000112653
-0.00110583
-0.000333639
0.0011722
-0.00456121
0.00797799
0.00668758
-0.0104035
-0.00306311
-0.00547611
1.11371e-05
-0.00168711
-0.00827011
0.0136393
-0.000208808
-0.00140298
0.000804421
0.0065685
0.0198134
0.000292015
0.000183203
-0.00232103
0.00635658
-0.00142411
0.00130584
-0.00105316
0.00101518
-0.000865693
0.000274747
-0.000991592
-8.50429e-05
0.0062484
0.000614813
-0.00238821
0.0155391
0.0184037
3.72754e-05
-0.00140757
-0.000693815
0.000299544
-0.00172344
0.00570398
-0.00347873
-0.0123078
0.00161418
-0.0012971
-0.00972661
0.0147771
0.0083357
-0.000654978
0.00110455
0.0177613
0.0205814
-0.00112499
0.0208466
-0.00199011
0.000894962
0.00051295
-0.0031126
-0.0016033
0.000524724
-0.000570691
-0.000536495
0.000785875
0.000272513
0.00494005
-0.00891436
0.0175079
-0.00423102
-0.000349047
-0.00221628
0.00349741
-0.00123125
0.0010237
-0.00142641
-0.000267757
-0.00105352
0.00165475
-0.00593118
-0.000599984
0.00108373
-0.0108751
-0.00232415
-0.00272757
-0.0073316
0.00625703
-0.000299238
0.000801292
-0.00129362
0.000136971
-0.0113609
-0.000372892
-0.0111695
-0.00777022
0.0175686
0.0205684
-0.00665186
-0.00203615
0.00727443
0.0221442
-0.00494791
0.000276867
-0.000317669
4.08016e-05
0.00913479
-0.0116359
0.000267927
-0.00989418
-0.00158727
0.00312059
0.000530745
-0.00152234
0.000239984
-0.0133588
0.00203936
-0.00111041
0.00258175
-0.00418395
-0.000961572
0.000353722
-0.00165082
0.00468545
-0.00774856
0.00143371
-0.000418523
0.00219651
-0.000890667
-0.000148511
0.00031923
0.000675624
0.00281132
0.0147337
0.000805347
-0.0011927
-0.00126873
-0.00157741
0.000711712
-0.000126704
0.000486638
0.014771
4.33323e-05
0.000233535
0.00052439
-0.00212769
0.0184004
-0.000639121
-0.000377272
0.000890222
-0.0117446
-2.93671e-05
0.000181463
-0.000690521
-0.00336943
0.00993794
-0.00221918
-0.00178015
0.000655162
-0.000975016
-0.00069839
0.000284721
0.000921872
0.000250327
-0.00104038
0.00115303
0.00743854
-0.00982675
0.0164103
-0.000169978
-0.007212
0.0083247
-0.0011127
-0.0006998
0.0127982
-0.00169189
0.0154923
0.00126161
0.00927016
0.00829843
0.00105643
0.00112052
0.0204248
-0.00291698
-0.00124573
-0.000204276
-5.61201e-06
0.000209888
-0.0104139
0.00130984
9.76211e-06
-0.00152688
0.000100467
-0.00164318
-0.000553708
-0.00147582
0.000164581
-0.00220073
0.00236024
0.00334374
0.00571993
0.0117732
-0.00749741
-0.00427581
0.0138457
-0.0124167
0.0100134
0.0015975
-1.94753e-05
-4.59338e-05
0.00590073
0.0101086
-0.0112764
0.0154769
0.00777162
-0.0174982
0.00679755
-0.0091217
-0.00148624
-0.000836597
-0.000273818
0.00106322
-0.00225592
-0.000481554
-0.000480018
-5.87062e-05
0.000326633
-0.000345575
-0.000545092
-0.00707905
0.0105765
-0.00186791
-0.00458791
-0.000341871
0.0139433
0.000827658
0.000436853
0.011127
-0.0114999
-0.00081517
-0.00106447
0.000596456
0.00996313
0.000202208
0.00351519
-0.00662779
-0.00575931
0.0130337
-0.000130256
0.0124143
0.0106437
-0.0108525
-0.00615039
0.00286606
-5.47444e-05
0.0130216
-0.0109822
-0.00404542
-0.00100657
-0.00104442
0.00193464
0.00185209
0.0133042
0.000480507
-0.00118031
-0.000951014
-0.000508874
0.000256459
0.000475264
-0.000731722
0.00412767
-0.00146253
0.00170252
-0.00122382
0.000941471
-0.00263336
-0.0116061
0.00851887
0.00653408
-0.00875326
0.00390201
-0.00727937
0.00285888
0.0173519
-0.000941627
-0.000381087
0.0101257
-0.00985323
0.00925768
-0.0105264
-0.00863333
0.000204276
0.000305138
-0.00137637
0.00124967
-0.00165899
1.58063e-05
-0.00308153
0.01138
-2.88015e-06
0.000489518
-0.00125926
-5.1328e-05
-0.000829273
0.00188588
-0.000829444
0.0196611
-0.0151195
0.00337489
0.000323753
-0.00557921
0.0210715
-0.000569065
4.88672e-07
0.0207092
-0.00791099
0.014435
-0.00193281
-0.0114392
0.0104642
0.00886327
-0.010109
-0.00115439
0.000600685
0.00064661
-0.00251452
0.000868182
-0.00235443
-0.00160931
-0.00066875
-0.0103242
0.00724267
0.00837854
-0.00985436
0.00026775
-0.00026775
0.00128004
-0.000305138
0.000579886
0.00079814
-0.00134323
0.0016698
-0.00273427
7.61013e-05
-0.00162904
0.000584621
0.000743396
-0.000312124
-0.00665983
0.0125606
0.000472109
-3.93785e-05
0.0188439
-0.00336696
0.00103861
-0.00044215
-9.37097e-05
-0.000862741
0.00829697
0.00166616
0.000256836
-0.000769544
-4.56253e-05
0.000669653
0.00045087
0.0115233
-0.0122139
0.010385
-0.0112175
0.00912462
0.011268
-0.00115941
0.000916346
-0.000714138
0.0122608
0.00104339
0.00115917
-0.000963557
0.00105441
-0.000828632
-0.000743164
0.000326145
0.0019641
-0.000145414
-0.00181868
0.000150411
-0.000531497
-0.00114866
0.00011001
0.000716822
-0.000284721
0.000146026
0.000648945
-0.00983887
0.00560784
9.5275e-05
0.00472012
-0.000632688
0.00161716
0.000743073
0.00165924
-0.0029185
0.0113192
-0.00895007
0.0132647
0.0131605
0.00100704
-0.00100655
0.00988663
-0.0108376
0.000212594
-0.000241962
0.0168753
-0.0091037
0.012435
-0.0105829
0.000935027
0.0106098
-0.0111187
-0.0102851
0.013144
8.69025e-05
-0.01569
0.00953958
-0.00129853
-0.000634275
-0.000726752
-0.000168859
0.00145879
0.000138703
0.00185757
-0.00346688
-0.000695188
-0.0140125
0.00303025
0.00161828
-0.00129453
0.000930736
-0.00227397
-0.0106376
-0.00158378
-0.00159267
8.34333e-05
-0.000329769
0.000329769
0.00190966
0.0152062
-0.000771269
0.00117613
-0.000876696
0.000104785
0.0122452
-0.012914
0.0016701
-0.00522579
0.00156379
-0.00187591
-3.3932e-05
0.000105452
-7.15197e-05
0.00966463
-0.0102337
-0.00212716
-0.000222375
0.000370184
0.000373211
0.000475543
0.00227543
0.00220108
-0.00316464
0.00151726
-0.000932637
0.00673725
0.00238738
0.00014281
-0.00621273
0.0134554
-0.000740037
0.00121215
0.00101913
0.0118393
0.0133184
-0.0134121
0.000315269
-0.000645039
-0.000189729
-0.000557385
-0.000579886
0.000830212
0.0050099
0.000557235
0.00778064
0.00127781
-0.000223401
-0.0138618
0.0129991
0.00134309
-0.00108626
-0.000717419
-0.000248881
0.000575026
0.0191189
-0.00873395
-0.000859552
0.000643539
-0.00961863
0.0143387
0.000217618
-0.000559489
0.0104392
-0.0111823
0.000219592
-0.000124317
0.00179175
0.00735617
0.00113717
2.2004e-05
0.0102025
0.00111668
0.00565781
0.00194154
-0.00263673
0.00250061
-0.0040844
-0.000157361
0.0140032
-0.0138932
0.000573652
-0.000742511
3.13901e-05
-0.000966269
-0.00795864
-0.00131999
-0.00137693
0.00299409
-0.00199849
-0.000275477
0.0187742
-0.0056137
-0.000184249
-0.000717785
-0.00162528
0.000730941
-0.000644039
0.000802783
-0.000697998
0.0025869
-0.0034636
0.0165318
-0.00326714
6.5632e-05
0.00165759
-0.00593339
-0.00925541
0.00197604
0.000777221
0.0019214
0.00943125
-0.000398468
0.0011923
-0.00071676
0.000963265
0.000404411
-0.00167042
0.000737786
0.0116626
0.00745637
0.00544983
-0.00141034
-0.000577734
0.00187927
-0.000703143
-0.000327329
0.00383678
0.000794618
-0.0169357
0.0117099
0.000487768
0.0116767
-0.0107417
-6.43494e-05
0.00172194
0.00144804
-0.0008908
0.00165587
-0.0122889
0.0145643
0.00205386
0.00295604
0.000558013
0.0104042
-0.0103207
0.00444124
0.0017622
0.000449334
0.00245788
-0.0031753
0.0128829
-0.00985265
-0.0167774
0.00767372
0.00230002
0.000426371
0.000591126
0.0139946
-0.014217
0.00515993
0.00262071
6.02722e-05
0.012711
-0.000871774
-0.000651236
-0.000187475
0.000102433
-0.000355317
0.000170464
0.0100403
0.00215213
-0.000242465
0.00217413
0.000494304
-0.00867575
-0.000308628
-0.000178849
-9.11771e-05
-0.000768375
-0.00393661
0.000346124
0.0109181
0.00204985
0.0030768
-0.00404307
0.0114615
-0.0116512
0.00371471
-0.00399018
-0.000369689
0.00627661
0.000731276
-0.01489
0.00425243
0.000654361
-1.08221e-05
0.00139958
-0.00133394
0.0076367
0.01087
-0.000386799
-0.00923219
0.0094439
-0.000504628
0.00128185
-0.00301433
0.00138905
-0.000735216
0.00146225
-0.000498988
-0.00364757
-0.000755982
0.000101358
-0.0178228
0.00986412
0.00275422
-0.00333196
0.000279116
0.00134282
-0.00150019
-0.0145147
0.0137969
0.000639681
0.000508775
0.00135333
-0.000558712
-0.00125213
0.00832368
0.00110757
-0.000830212
0.000968915
-0.0102417
0.0140785
0.00111859
-0.00066926
-0.000421079
0.012172
-0.0133314
0.00107656
0.00336468
0.000532821
-0.000472549
0.000125729
5.57335e-05
0.00110973
-0.000140094
-0.000969638
-6.95466e-05
0.000807333
0.0141547
-0.0145531
0.00157911
4.96244e-05
0.00383973
-0.00084564
0.000655436
-0.000161131
0.0136148
-0.008165
0.0133314
-0.0139641
-0.012172
0.0110233
0.0015805
-0.00175935
0.00369726
-0.00611288
0.00745191
0.00154287
0.000113004
0.000957626
0.000955122
-0.000223846
-0.000374713
4.73846e-05
-0.0146908
0.0139641
0.00390079
-0.00427048
0.000328505
-0.000185205
-0.0001433
-0.000269359
-8.59587e-05
-0.00486589
0.000875711
0.0176153
-0.0101589
-0.000142283
0.00153205
0.0167417
-0.00670141
-0.000204276
-0.000708951
0.000246553
0.0120893
-0.00978923
0.000854341
0.0030457
-0.0034325
-0.00347684
-0.000908469
-0.0119227
0.0139726
0.00134755
0.010919
-0.010361
-0.000585196
0.00377516
0.00250145
0.000559882
-0.0130207
-6.23154e-05
0.00337308
0.0145514
-0.00363332
-0.0159505
0.0120139
-0.000136439
0.0012123
-0.00028626
0.000598296
0.0116796
-0.0115091
-0.00256134
0.00106115
0.000182887
0.00215581
-0.000387207
-0.000579605
-0.00015561
0.000553872
-4.50971e-05
0.0130207
-0.0129893
0.00195263
-0.00237371
0.000793991
-0.0110233
0.00943065
1.63894e-05
-5.1304e-05
3.49146e-05
0.00488272
2.83835e-05
-0.00215355
-0.0124911
0.00432606
-0.0069133
-0.013056
0.00320337
-0.00146493
0.0108354
-0.00139151
0.00041016
-0.000718787
-0.00195329
0.0035324
0.0025876
0.0129893
-0.0125849
0.000193284
-1.63894e-05
0.000210339
-0.00019395
0.000755622
-0.000115941
0.00141139
0.013681
-0.0134019
0.000330026
-0.00880359
-0.000711033
0.00151837
-0.000644072
0.000868627
0.00512424
0.000185038
0.00351222
-0.00587329
-6.01008e-05
0.0040154
0.00658278
0.00785003
-0.000665564
-0.013205
0.0132546
-0.000663649
-0.00434717
0.00350153
-0.00125737
0.00221499
-0.000968915
0.00072645
0.000246342
2.11326e-07
0.00489135
-0.00401564
0.0034002
-0.00354249
0.0125849
-0.0119938
-0.00201144
0.00286578
0.000620872
-0.00389725
0.00811066
-0.00943065
-0.00840528
0.0117784
4.97968e-05
-6.92721e-05
-3.22907e-05
-0.00270431
0.00326419
-0.000547854
-0.000360615
0.00720209
-0.0159734
0.00986053
0.00268649
0.00148218
-0.00026988
0.00666831
0.000783598
-0.00315015
0.00301371
0.00215019
-0.00243645
3.73129e-05
-7.12449e-05
-0.000872108
0.0111505
-0.00682439
-0.00310867
0.00329156
0.0147835
-0.00710977
0.00167912
-0.000147074
0.000767584
-0.000974216
3.01423e-05
-0.0100406
0.0121964
0.000201245
0.0111832
-0.00983566
-0.000284721
-0.00554337
0.00206652
-0.000223522
-0.00282583
0.00361982
-0.000149329
-0.00395956
0.000214186
-0.000703464
0.0119938
-0.0118924
0.000822205
0.000188674
4.61045e-06
-0.00295576
-0.0118907
0.00210151
0.00274517
-0.0101546
0.0033302
0.00173779
0.000535282
0.000983084
0.0052768
0.000224816
0.00555131
0.0143297
-0.00920547
0.00244633
0.0024364
-0.00101527
0.000899331
4.58809e-05
-0.0138568
0.0117032
-0.00351618
0.00384621
-0.00278555
0.00419694
0.000203551
9.76221e-06
-0.000814768
0.000161472
0.00417511
0.000114046
0.0119382
-0.00408813
0.00446309
0.0121287
-0.0115304
0.000340865
-0.000405215
0.000113643
-6.38466e-05
0.000726673
0.0136557
-0.00707288
-9.4963e-05
2.31963e-05
0.000188885
0.000172379
0.000222147
-0.000394526
0.000159216
-0.000803288
0.000465726
0.000265402
-0.00868737
0.00393022
-0.00330935
0.000619638
0.000672717
0.00019591
-0.000633057
-3.25076e-05
0.0143189
-0.0142905
0.00230074
-0.00233303
-0.000602171
0.000387731
0.000365712
-0.00102936
0.000525643
-0.000354452
0.000829715
0.0087634
-0.0015613
0.0100989
-0.00676865
-0.00072645
0.000339243
0.00445019
0.0118924
-0.0119548
-0.00543233
0.00141669
-0.0115137
0.0122813
-0.00114583
0.00383232
-0.000135705
0.011969
-0.00779394
0.00010364
0.00486527
9.46575e-05
-5.73446e-05
0.00322993
-0.000188237
-0.00836551
0.0111107
0.000682719
0.00580716
-0.00230563
-0.00375182
0.00395306
-0.00336581
0.000126975
-0.000350496
2.53853e-05
-0.0148702
0.00795688
0.0104714
-0.00602125
0.000917004
0.00467527
0.000757683
0.000225401
-0.0102685
0.0120063
0.0050791
-0.000416453
0.000131585
-0.0110643
0.00122868
-0.0012057
-0.000405271
-0.000298193
0.00886667
0.00310238
0.00129057
2.46823e-05
-0.000209888
0.00173335
0.00893526
-0.00406999
0.00267751
9.439e-05
-0.00502645
0.00421168
0.00209802
-0.00896284
-0.000473841
0.00480919
0.000467606
-0.00500965
-0.000437575
-0.00082951
0.0028514
-0.000747491
0.0120015
-0.0111793
-0.000533305
-0.0135695
0.00960994
-0.0130207
5.95179e-05
-0.000271678
-0.0087698
0.0118722
-0.00407422
0.0048009
0.00291401
0.000112195
0.00324789
-0.0038035
0.00399238
0.000842194
-0.0127515
0.00394787
0.0105381
-0.00786061
-0.0123522
0.013035
-0.0128269
0.0119548
1.63894e-05
-0.000613495
0.000809405
5.19516e-05
-0.000123197
0.00176832
0.000285836
0.00246618
-0.00207845
-0.0122636
0.0116614
-0.00414499
0.000835641
0.00678016
-0.00210489
1.76312e-05
-0.000241908
-0.00568438
0.00337875
-0.00943065
-0.00186627
-0.000345959
0.0001007
-4.87484e-05
-0.0027283
-0.000437779
0.000133152
0.000803724
-0.000538322
0.000206274
-0.000394511
0.000538322
-0.000313507
0.000725374
0.00250455
-0.000339243
0.000385124
-7.98643e-05
-0.000480956
7.5741e-05
0.000313507
-0.000109956
-0.0131695
0.0060597
6.38466e-05
-3.84613e-05
0.00271016
0.000216862
-0.000352567
-0.00446309
0.000565837
0.000109956
5.15164e-05
0.00899272
-0.00607871
-5.15164e-05
0.000165562
0.000471093
0.000241962
-8.40672e-05
-0.000157894
-0.000165562
7.05992e-05
0.000149566
0.000272818
-0.000147088
0.00113211
0.011117
0.000755178
-7.05992e-05
0.000536325
0.00531925
-0.00246785
0.00082604
-0.000300397
0.00119298
0.00195344
-0.0103844
0.0124824
-0.000133634
-0.0132352
0.0140774
-0.00286095
0.00415152
-0.00183258
1.79907e-05
0.00181459
-0.00537117
0.00454166
-0.000803724
0.00102912
0.013627
-0.0118937
-0.000541056
0.00363472
-0.000386829
0.0120002
-0.0107715
-0.00147269
0.000292735
-0.000392398
4.33555e-05
-0.000536325
0.000639966
-0.00720015
0.00257709
-0.0112645
-0.00057027
-0.00380019
0.00393178
0.00152983
-9.19193e-05
0.00729166
-0.0045815
-0.000356402
0.000820826
-0.0129012
0.0129189
0.000626812
-0.000297997
-0.000328814
0.0114678
-0.00969952
0.0146673
-0.0140476
0.00121296
-0.015348
0.015002
0.000133717
-0.00532306
0.00508116
-0.00102912
0.000757447
0.00469021
-0.00131147
0.00256306
-0.00172742
-0.000757447
0.000319871
0.000190797
0.00100218
-0.0052126
-0.0119099
0.000732606
-0.0103247
0.00136186
0.012263
-0.000601598
-0.000639966
0.000734356
0.00039187
0.00382703
-0.00187359
0.000484603
-0.000319871
-0.000153969
-0.0048987
0.00342601
0.000192192
0.000588737
-0.00117154
0.00222237
0.00037676
0.00109874
-0.0128747
0.00786509
-0.000357046
-0.00127062
2.35791e-05
-0.000103443
0.0103968
6.12487e-05
-3.76696e-05
-0.00326481
0.000232301
-0.000196032
0.012223
0.00969952
-0.00856742
0.000182538
-4.93858e-05
3.84613e-05
4.89418e-06
-0.00346533
0.00215387
0.00538921
-0.00385938
1.25003e-05
-0.000385124
0.000670961
0.000186054
-0.000602507
-0.0050999
0.00452963
-0.0077476
-0.00731659
-8.0247e-05
-0.0116006
0.000829103
-0.0102387
0.000153969
-0.000591748
-0.00302526
0.00266885
0.000885233
-7.58277e-05
-0.00330705
0.00295
0.0030867
-0.000864333
0.000807712
-3.93206e-05
-0.000170029
0.000584836
-0.013503
0.0139741
-0.000734356
0.000883922
-1.8745e-05
0.00121311
-0.0127782
0.013599
0.00218693
-0.00108819
-0.000106555
2.6308e-05
-0.0151509
0.0152846
-0.000565838
2.47812e-05
-0.00536578
0.00419424
0.00122259
-0.0130433
0.0124417
-0.00202307
0.00856742
-0.00735446
-0.00160047
0.00156115
0.0130556
-0.0122265
0.000591748
-0.000683667
0.000459511
0.000393789
0.00134953
-0.00012443
-0.00369244
0.00355881
0.00197533
0.000178533
-0.000148859
-6.8748e-05
-0.000650039
0.000241962
0.000101204
0.000383399
0.00333921
-0.00353525
-0.00367095
0.00365221
0.0139362
-0.0135444
0.001111
-4.89416e-06
1.73944e-05
-0.012223
0.0129556
0.00148061
-0.000267507
0.00132573
-0.000103145
-0.0129556
0.0135444
0.000683667
-0.000451366
0.000692523
-0.000399788
-3.0814e-05
-0.0139362
0.0126656
-0.00269693
0.000277413
-0.000451345
0.000629878
0.00131641
3.31182e-05
8.72888e-05
-0.010326
0.000392423
-0.000520169
0.00052329
0.0122271
-0.00183036
-0.000883922
0.00107611
0.00110981
0.000239334
-0.00969952
0.00735446
-0.00654675
9.60505e-05
0.00896233
0.00264214
0.00354906
-0.00544917
0.0115089
-0.0123452
0.00011868
-0.000320494
0.000780005
-0.0117499
0.00653726
0.000668753
0.000442248
-0.0104047
0.00495549
-0.0122579
5.18187e-05
0.000451366
-0.00032236
-0.000129006
0.00133037
-0.00907797
-0.00388476
-1.70041e-05
-0.000132325
-2.47812e-05
-6.03277e-06
-0.00899563
0.000401246
0.00156394
-0.000454133
-0.0023837
0.00593276
-0.00247745
0.00300074
-0.000670961
0.000595133
0.0119099
-0.0115331
0.00159706
-0.0123473
0.00846249
-0.0129956
0.0111652
-0.00056179
0.000954212
-0.00284762
-0.00623035
0.00537641
-0.00273427
-0.0126656
0.0125168
6.29056e-05
-0.0119099
-7.35709e-05
0.00156726
-0.00359033
0.0115106
-0.0112332
-0.000321963
0.000951841
-0.0101642
-0.00327988
0.00310985
-0.000553891
-0.002894
0.000197068
-0.0151966
0.0150722
-5.71675e-05
1.94979e-05
-0.0038674
0.000120285
-0.0108524
0.00698502
0.00299271
0.00345531
-0.000809519
0.00121077
0.00654675
-0.00706691
-0.00338492
-0.00430872
-0.00585549
0.0112332
-0.0111145
0.000218215
0.00337814
-0.00178108
0.00162195
-0.00067011
8.79577e-05
0.00116782
-0.0115106
0.0116067
0.00305638
-0.00300456
-0.00446415
0.00941964
0.000451366
-0.00238993
-3.08596e-05
-0.00196798
-0.00985166
0.00538751
-0.008764
-0.000231636
0.00206886
-0.00829922
0.000643873
0.000106739
-0.00669513
-0.0144328
0.0110478
0.000144692
-0.00356415
-0.00473507