/*--------------------------------*- C++ -*----------------------------------*\
  =========                 |
  \\      /  F ield         | OpenFOAM: The Open Source CFD Toolbox
   \\    /   O peration     | Website:  https://openfoam.org
    \\  /    A nd           | Version:  8
     \\/     M anipulation  |
\*---------------------------------------------------------------------------*/
FoamFile
{
    version     2.0;
    format      ascii;
    class       volVectorField;
    location    "0.85";
    object      U;
}
// * * * * * * * * * * * * * * * * * * * * * * * * * * * * * * * * * * * * * //

dimensions      [0 1 -1 0 0 0 0];

internalField   nonuniform List<vector> 
1924
(
(-0.267236 -0.221267 2.23711e-17)
(-0.542999 -0.271791 2.33971e-17)
(6.98728 0.528581 7.19191e-18)
(6.92566 0.52208 2.45251e-18)
(0.722238 -0.170367 2.73312e-17)
(6.08913 0.0916762 5.72673e-18)
(5.46239 -0.137868 6.69337e-18)
(6.10603 -0.505268 6.60234e-18)
(6.04355 -0.755324 8.07444e-18)
(6.52123 0.565104 1.84682e-17)
(6.38788 -1.1881 9.96719e-18)
(6.08754 -1.51408 1.02753e-17)
(-0.540083 0.202152 6.19467e-18)
(6.11953 -1.40139 1.08062e-17)
(1.98905 0.699112 2.92347e-17)
(1.28029 1.97427 2.51927e-17)
(-0.369175 -0.00209855 8.37755e-18)
(6.16521 -1.74325 1.66253e-17)
(-0.294453 -0.187284 2.05669e-17)
(6.93738 -1.85619 1.81374e-17)
(0.197586 -0.189579 3.77652e-18)
(-1.08549 -0.898095 1.71087e-17)
(-0.54574 -0.293839 9.89588e-18)
(6.68385 -2.5512 1.9183e-17)
(-0.845212 -1.00967 1.25592e-17)
(1.07151 3.19133 1.72398e-17)
(2.3707 5.19099 2.65493e-17)
(4.22848 0.751175 3.06829e-17)
(3.5656 0.533006 3.22043e-17)
(1.45132 1.40747 1.80175e-17)
(-0.283191 -0.172457 9.06646e-18)
(-0.575222 -0.732997 1.31587e-17)
(-0.298214 -0.106407 2.2947e-17)
(-0.459487 -0.0510904 8.35019e-18)
(4.83616 0.480769 3.1408e-17)
(-0.455986 -0.320451 9.1045e-18)
(-0.155812 0.247865 1.03167e-17)
(4.95989 0.615119 3.31747e-17)
(1.30304 0.545446 1.65549e-17)
(-0.224289 -0.102978 8.82995e-18)
(0.88662 2.25887 1.37213e-17)
(-0.144546 -0.257758 5.97796e-18)
(0.502821 1.71244 1.32272e-17)
(-0.588684 -0.281999 8.19247e-18)
(4.27185 2.73165 2.84093e-17)
(2.76533 0.397695 3.219e-17)
(-0.126461 0.284635 1.71937e-17)
(5.41058 2.63351 2.1979e-17)
(0.184983 0.000305988 1.79522e-18)
(0.149777 -0.103759 2.60903e-18)
(0.509212 -0.294301 4.40265e-18)
(-0.531013 0.00839695 7.15799e-18)
(-1.12124 -0.865826 1.09328e-17)
(0.55766 -0.327092 2.82176e-18)
(1.65293 0.105024 3.1365e-17)
(6.26906 0.588854 2.25075e-17)
(-0.305764 0.0646479 1.9259e-17)
(5.97873 2.90914 2.32631e-17)
(4.03209 1.15439 3.76222e-17)
(1.92982 9.63459 2.26918e-17)
(-0.508043 -0.238705 7.61364e-18)
(1.66842 3.38243 2.03678e-17)
(-0.319816 -0.233425 5.38854e-18)
(2.41521 0.793415 1.74402e-17)
(0.517492 -0.328713 4.0326e-18)
(5.81619 2.17156 1.80976e-17)
(1.46296 7.49167 7.08229e-18)
(0.323804 -0.332086 6.40884e-18)
(4.17628 0.677879 3.30888e-17)
(0.505982 -0.315388 5.15842e-18)
(-0.283372 0.0615316 1.12814e-17)
(1.05284 4.40936 1.57431e-17)
(1.77604 0.0822706 2.0838e-17)
(0.903181 1.26169 1.46976e-17)
(0.457181 0.886759 1.18582e-17)
(-0.50493 0.17906 1.13666e-17)
(5.09468 1.08785 8.41855e-18)
(0.43852 0.801441 5.0666e-18)
(4.42051 2.4514 1.99918e-17)
(0.169423 -0.0783249 4.23264e-18)
(3.90787 -3.13157 6.18205e-18)
(2.77662 6.5803 2.59546e-17)
(3.42201 3.90909 6.27818e-18)
(-0.165072 -0.151933 1.11407e-17)
(-0.26539 -0.19634 2.30257e-17)
(0.26185 0.104874 3.45115e-18)
(5.17696 0.94742 3.93754e-17)
(2.97684 1.03469 2.52874e-17)
(0.13274 -0.0827063 3.18575e-18)
(-0.269995 0.0542714 1.30244e-17)
(1.97886 7.91152 6.36236e-18)
(2.14663 6.74948 2.26604e-17)
(3.02397 0.644857 3.26404e-17)
(3.95669 1.35839 3.18367e-17)
(-0.358331 -0.0268212 7.61474e-18)
(0.479994 -0.289408 6.56603e-18)
(5.38208 0.776169 5.80525e-18)
(4.3336 -3.16034 6.72781e-18)
(2.3158 9.08666 2.03851e-17)
(-0.364753 0.00472239 1.14864e-17)
(7.07083 0.85252 7.25961e-18)
(-0.390935 -0.1187 7.62599e-18)
(2.88624 9.10742 1.81036e-17)
(2.43075 7.78905 2.0157e-17)
(4.45484 1.89333 3.19262e-17)
(1.97167 -1.11992 6.88052e-18)
(6.96463 1.49943 9.58651e-18)
(2.54093 1.38381 2.7482e-17)
(1.48471 9.16967 2.45178e-17)
(5.00638 1.51576 2.88484e-17)
(4.38528 -0.0877062 7.3011e-18)
(5.39267 1.02581 2.79542e-17)
(3.925 0.381545 3.3292e-17)
(3.4933 3.27552 2.88904e-17)
(3.80827 1.61005 1.50104e-17)
(-0.033524 0.014526 2.1924e-17)
(7.22048 0.794487 2.5463e-18)
(0.528046 1.43431 2.60164e-17)
(0.873742 -0.0130062 4.19783e-18)
(4.03938 0.710675 6.04924e-18)
(-0.197601 -0.143384 2.07665e-17)
(0.098913 -0.0046532 3.14474e-19)
(0.215942 -0.166005 3.33496e-18)
(-0.0380626 -0.0216588 2.07077e-17)
(1.09077 6.15316 1.26955e-17)
(4.76779 2.44335 2.85181e-17)
(-0.372148 0.0405487 1.29993e-17)
(0.660562 0.372629 -9.8132e-19)
(5.49556 1.45923 2.66829e-17)
(0.0654949 -0.0192829 -3.85531e-19)
(3.84658 -0.470719 7.23853e-18)
(7.35626 1.42463 3.15424e-18)
(-1.00861 0.308134 1.66613e-17)
(3.7674 3.44068 2.38655e-17)
(-0.476016 -0.0314486 6.85256e-18)
(5.9172 2.302 2.02779e-17)
(5.80928 0.742884 2.66308e-17)
(6.11411 1.13312 2.30953e-17)
(6.32769 -2.66925 2.47379e-17)
(4.9293 0.501232 3.34806e-17)
(6.14196 1.37841 2.60571e-17)
(1.26986 5.7327 1.38929e-17)
(-0.193137 0.168566 2.17744e-17)
(-0.345064 -0.0607584 -1.10162e-18)
(6.60014 0.564368 1.93636e-18)
(0.0572016 -0.0249496 -3.7049e-19)
(2.87333 1.6357 3.19724e-17)
(-0.346957 0.0531912 1.01017e-17)
(1.20676 9.19759 2.6161e-17)
(0.887515 0.204726 4.86941e-18)
(2.49931 3.27226 6.77191e-18)
(0.0878952 -9.41237e-05 5.53559e-19)
(-0.513544 -0.0269947 1.00128e-17)
(7.08057 1.5136 2.64278e-18)
(6.23146 0.281258 6.19317e-18)
(4.96308 2.83824 2.81857e-17)
(0.0968213 0.0137951 -8.79438e-20)
(6.35715 0.832547 2.04798e-17)
(4.31729 -0.648799 5.01596e-18)
(3.5845 5.2157 1.06067e-17)
(2.89356 2.88608 2.7583e-17)
(-0.258372 -0.32142 2.09137e-17)
(6.75322 1.04245 2.7652e-18)
(0.100577 -0.00381705 9.55272e-19)
(1.92912 1.41553 -1.35316e-17)
(6.21539 2.86086 1.81553e-17)
(6.28913 3.55479 1.6682e-17)
(0.10136 0.0172454 -1.32608e-19)
(3.63779 0.208564 4.41357e-18)
(6.51416 2.22083 1.46223e-17)
(-0.628941 -0.18977 2.2765e-17)
(6.60967 0.221961 1.09476e-17)
(1.83409 -1.25417 8.67403e-19)
(1.96432 8.24613 1.79811e-17)
(6.38601 1.01051 1.93333e-17)
(0.714693 0.106099 -7.40514e-18)
(2.78728 2.51424 2.57477e-17)
(-0.279232 -0.100231 1.16643e-17)
(-0.592967 -0.240436 9.49101e-18)
(6.72855 1.06612 6.70158e-18)
(3.58584 3.18365 2.3858e-17)
(-0.38172 -0.453799 3.42275e-17)
(1.49564 0.807486 6.82619e-18)
(6.28914 4.11801 1.57563e-17)
(0.183168 0.00776935 3.85048e-19)
(0.461063 0.298373 3.01222e-17)
(-0.486426 -0.0148523 1.09621e-17)
(4.64582 4.70996 2.02972e-17)
(3.42408 -0.488093 6.9685e-18)
(2.52462 2.47968 2.25728e-17)
(1.86429 0.837917 3.1878e-17)
(6.67685 -0.00535516 6.80357e-18)
(4.21551 -1.0821 4.22413e-18)
(6.79967 0.796371 1.1294e-17)
(6.9748 4.42127 5.89813e-18)
(0.0820049 -0.0027621 7.35062e-19)
(5.15153 6.12493 1.34165e-17)
(0.149585 0.253152 -1.67336e-17)
(2.19302 1.73313 2.00296e-17)
(-0.365681 0.228257 6.31079e-18)
(-0.142741 -0.0553255 1.70059e-17)
(0.600134 -0.0584681 3.0524e-17)
(6.97119 3.0601 8.13877e-18)
(7.05606 -0.134329 1.10852e-17)
(-0.351241 0.068013 2.54601e-17)
(3.42009 3.36963 2.71736e-17)
(7.41119 1.14617 1.16441e-17)
(-0.44833 -0.0910498 8.62633e-18)
(-0.399451 0.0128454 9.67126e-18)
(0.0991319 0.310595 5.99008e-18)
(0.100829 -0.00562283 9.82263e-19)
(6.99908 2.09503 7.45884e-18)
(5.18697 -2.42337 3.55217e-17)
(6.9218 5.17357 2.88028e-18)
(4.40872 4.95963 2.35399e-17)
(1.6622 -0.630356 6.21487e-18)
(0.91152 8.08204 2.29454e-17)
(1.66566 0.772923 3.47366e-17)
(7.41971 0.723331 1.21024e-17)
(0.458716 0.177211 -6.90187e-19)
(3.68313 2.1132 3.42748e-17)
(4.60226 3.48908 2.43888e-17)
(7.15694 3.6769 7.65815e-18)
(4.73532 -1.80255 3.27898e-17)
(6.79158 -0.584958 1.31086e-17)
(4.86061 6.39595 1.56976e-17)
(4.95368 -1.65195 5.98372e-18)
(2.69829 -1.82826 4.01868e-18)
(6.97162 4.86408 3.55813e-18)
(-0.512634 0.294223 1.22904e-17)
(-0.893777 -0.0887147 1.6595e-17)
(2.3736 9.21305 4.13151e-18)
(1.95695 1.8192 2.1651e-17)
(-0.420481 -0.0330566 1.06971e-17)
(5.13868 7.32116 9.05421e-18)
(0.477204 2.54088 -6.37909e-18)
(4.63008 -3.55482 2.69213e-17)
(6.61276 0.619754 1.78155e-17)
(7.24892 3.29548 3.925e-18)
(0.0806116 -0.00549879 5.1078e-19)
(-1.02189 -1.16763 3.7077e-17)
(2.10769 2.51955 2.53203e-17)
(4.92792 -3.75077 2.91094e-17)
(-0.457593 -0.137657 6.341e-18)
(1.79544 2.18476 1.67342e-17)
(-0.331956 -0.0142763 8.3987e-18)
(6.2488 -0.615973 2.01585e-17)
(6.47219 0.71715 7.20478e-18)
(1.28714 0.401435 2.09314e-18)
(2.35504 -1.60821 3.61807e-18)
(0.862638 0.653485 4.73097e-17)
(0.0976761 -0.0119572 4.83809e-19)
(6.80336 5.74065 7.83602e-18)
(7.34355 2.68488 4.16787e-19)
(3.06885 -0.877865 7.09316e-18)
(3.83934 -2.37446 3.07126e-17)
(0.748782 3.24861 1.75612e-17)
(0.779879 1.53057 1.8748e-17)
(3.6535 2.45423 3.71388e-17)
(6.17518 0.0324707 1.97753e-17)
(5.12695 3.56394 2.58186e-17)
(7.37611 3.98028 9.36415e-19)
(1.58374 7.99183 2.29724e-17)
(1.85565 -0.430856 3.8286e-18)
(-0.612379 -0.851498 1.15866e-17)
(0.114859 0.354043 1.20907e-17)
(0.219308 -0.337498 3.60652e-18)
(1.37087 -0.922831 -2.22899e-18)
(1.58761 -0.032567 3.4261e-17)
(-0.0594071 0.34952 1.40274e-17)
(-0.819615 -0.0624286 1.43693e-17)
(3.09199 2.65244 6.86265e-18)
(-0.496251 -0.370378 2.53302e-17)
(1.62746 2.83454 2.11661e-17)
(2.13087 9.33974 4.39173e-18)
(3.68118 -3.3443 7.85112e-18)
(6.13271 -0.885336 1.73903e-17)
(4.74355 7.6034 1.09014e-17)
(7.26126 2.2701 1.88139e-18)
(0.934385 1.16713 1.98766e-17)
(-0.138622 -0.0180131 1.93944e-17)
(0.0726265 -0.0090406 2.16944e-19)
(2.46137 8.75224 -2.69057e-19)
(6.74508 5.37098 7.75157e-18)
(-0.176078 -0.15503 2.00869e-17)
(1.40508 1.33413 1.43853e-17)
(4.99735 -2.06827 5.03721e-18)
(0.0829158 -0.0218148 -2.00682e-19)
(6.35958 0.46621 1.71148e-17)
(1.90295 2.58729 2.63141e-17)
(7.16101 3.14195 5.94763e-18)
(1.23309 0.118636 2.05096e-17)
(4.63956 8.26924 6.51503e-18)
(3.69142 -4.0575 3.05915e-17)
(0.218803 -0.0865296 1.81667e-18)
(1.94313 0.813932 -1.22307e-17)
(3.17976 -1.47882 3.19932e-17)
(-0.252136 -0.190294 6.88311e-18)
(0.861147 -0.197439 2.26735e-19)
(3.25532 -3.64246 2.98709e-17)
(0.0591526 -0.0135498 -5.05372e-19)
(7.18603 2.50161 3.85007e-18)
(4.16522 -4.71659 2.94082e-17)
(0.810647 7.59055 2.32416e-17)
(6.94302 -0.30193 1.93938e-17)
(2.46317 4.19581 2.26642e-17)
(-0.0846842 -0.204378 4.33275e-18)
(4.44172 -4.63224 2.77192e-17)
(0.300803 1.29281 1.47763e-17)
(5.33211 3.3486 3.031e-17)
(-0.34644 -0.0818154 8.37171e-18)
(0.414826 0.110628 6.18981e-18)
(6.37963 6.28043 7.6871e-18)
(-1.14594 -1.32397 2.16576e-18)
(3.61111 -1.15099 4.27412e-18)
(-0.477456 -0.00231467 3.68994e-18)
(5.01591 4.05309 2.16177e-17)
(6.59894 0.442895 1.84077e-17)
(7.10246 3.84079 5.6462e-18)
(6.05534 5.00264 1.07618e-17)
(0.231266 0.313884 2.2082e-17)
(-0.841824 -0.463852 1.63012e-17)
(6.83903 1.78697 7.64784e-18)
(3.67878 2.80818 1.00858e-17)
(2.94709 5.46534 2.50621e-17)
(3.30909 -2.33046 5.41485e-18)
(3.15096 3.94559 2.71182e-17)
(1.37084 2.70146 1.62444e-17)
(6.34663 0.44991 5.35667e-18)
(5.20019 -2.47503 6.76659e-18)
(0.515705 1.2143 1.85861e-17)
(1.36896 7.76105 6.64095e-18)
(-1.16124 -1.34956 1.88431e-18)
(7.14106 -0.673377 2.08287e-17)
(0.0988839 0.25784 7.60875e-19)
(4.29542 8.48529 6.77365e-18)
(1.84971 9.65018 1.30469e-17)
(7.27883 3.4017 9.98088e-18)
(5.92366 5.97391 6.7855e-18)
(7.06233 2.17122 8.45605e-18)
(3.14591 -2.12259 3.5115e-18)
(3.83725 3.36315 2.47618e-17)
(-0.924387 -1.12988 5.84462e-18)
(-0.282436 -0.2376 6.37365e-18)
(2.20244 -2.08009 3.07405e-17)
(0.0710135 3.87671 2.22462e-17)
(-1.20615 -0.414654 1.87264e-17)
(0.471678 6.20144 1.09421e-17)
(0.333225 0.216202 7.86418e-18)
(2.23808 3.97077 2.25652e-17)
(0.162856 0.420307 2.30328e-17)
(0.323998 0.641957 3.89999e-17)
(0.682458 1.6386 -8.80987e-18)
(3.11014 -5.03469 2.88699e-17)
(-0.289409 -0.0128579 6.97483e-18)
(2.27637 -1.66009 2.33511e-18)
(0.0702936 0.0462723 -1.51272e-18)
(6.23128 1.26649 2.19543e-17)
(-0.190967 0.10134 3.6741e-17)
(0.393961 -0.237276 6.70621e-18)
(4.02463 8.8382 5.21568e-18)
(2.16171 -4.18464 2.85186e-17)
(3.37667 -5.13487 2.97388e-17)
(1.60378 9.65376 4.20307e-18)
(-0.351301 -0.632354 1.48258e-17)
(7.55002 1.96707 1.04397e-17)
(-1.13062 -1.24243 4.13045e-18)
(-1.01032 -0.805028 1.71807e-17)
(5.4727 6.87824 3.54912e-18)
(6.89793 4.15032 9.22684e-18)
(3.57998 -5.18111 2.55009e-17)
(5.87369 5.6016 1.16346e-17)
(0.505539 1.23219 1.07057e-17)
(-1.63473 -3.2306 1.94157e-17)
(1.08258 5.36951 2.07044e-17)
(-0.0381877 -0.434201 1.50508e-17)
(1.42938 -3.70671 2.83802e-17)
(1.43518 -1.00094 3.50926e-17)
(-0.724777 -0.997505 8.5471e-18)
(0.130924 5.3384 1.48873e-17)
(-0.175793 4.20867 1.78423e-17)
(1.74467 -1.23417 -1.59507e-18)
(2.98391 4.09395 2.9542e-17)
(6.28609 6.14022 7.5496e-18)
(-0.0600979 0.568602 1.57795e-17)
(3.84747 -4.89294 1.87786e-17)
(0.0513212 0.043671 7.06496e-18)
(1.26275 9.04999 2.81751e-18)
(0.343985 3.42022 1.898e-17)
(7.28206 2.38747 1.29631e-17)
(1.74444 2.76317 -2.83089e-18)
(-1.13444 -1.22428 5.80086e-18)
(3.82017 5.41596 2.44703e-17)
(0.737058 7.94505 4.32697e-18)
(6.36484 3.53775 1.33181e-17)
(-1.25387 0.168939 1.00602e-17)
(0.204583 1.86391 2.72222e-17)
(-0.805524 -1.0268 7.31972e-18)
(4.96841 -2.83268 8.31238e-18)
(-0.31326 2.38961 2.45567e-17)
(0.038482 -0.0342729 -2.04973e-19)
(0.43805 -0.0113175 2.38883e-18)
(-0.262592 -0.253288 6.83507e-18)
(1.23872 0.657673 3.73328e-17)
(0.0820514 0.0096976 -1.20693e-19)
(1.38057 9.81544 1.59224e-17)
(3.71067 -4.34561 6.49594e-18)
(0.371037 7.20895 2.55293e-18)
(-0.520808 -0.394616 3.05789e-17)
(-0.554834 -0.0891412 2.31112e-17)
(3.75336 8.98207 1.08211e-17)
(-0.639912 -0.679963 1.08336e-17)
(6.26493 1.08039 2.58938e-17)
(6.75584 1.70583 1.71534e-17)
(4.90384 6.38139 6.25868e-18)
(0.666052 5.42148 3.19501e-17)
(3.18784 -2.89383 8.43724e-18)
(1.19315 -5.22852 2.718e-17)
(0.797731 -0.124455 4.10214e-18)
(4.97998 -0.0327965 6.64334e-18)
(1.93374 -5.39837 2.84022e-17)
(-0.958659 -0.87719 1.5931e-17)
(3.74381 -3.84691 4.3709e-18)
(-0.241162 -0.113717 8.18821e-18)
(-0.728072 -0.926987 1.08677e-17)
(2.78988 -5.76512 2.93663e-17)
(3.53122 -1.62614 3.9812e-18)
(1.49914 -1.03622 1.76159e-17)
(-1.19564 -1.23965 4.09095e-18)
(0.942815 6.60314 2.36265e-17)
(1.17905 9.92151 1.10577e-17)
(3.13493 -2.6918 5.21922e-18)
(1.43448 8.40124 2.36079e-17)
(0.200219 0.24113 -2.89164e-19)
(5.85916 4.56435 1.32489e-17)
(0.600899 5.28682 2.41855e-17)
(2.89379 -5.56859 2.7127e-17)
(0.379 -0.2976 3.37065e-18)
(6.36814 2.18923 1.63866e-17)
(-0.67107 -0.96122 8.85336e-18)
(-0.434215 0.0739505 1.73209e-17)
(-0.309363 2.60392 2.86372e-17)
(6.05512 6.78133 1.73765e-18)
(1.02682 0.0615528 -2.36401e-17)
(-0.665557 5.87217 8.89105e-18)
(3.34561 3.22196 6.05664e-18)
(3.29875 9.09474 6.88771e-18)
(0.281574 -0.108251 4.64584e-19)
(3.62918 5.5357 2.81753e-17)
(0.618395 9.58043 4.3738e-18)
(0.687623 -1.5852 3.47709e-17)
(-1.28187 -1.18781 6.49347e-18)
(6.06835 7.00623 3.9899e-18)
(5.19882 -3.27565 9.49457e-18)
(-0.391769 1.25673 2.90293e-17)
(4.0339 6.67162 2.1616e-17)
(2.96965 -5.06364 1.6341e-17)
(0.412874 -4.27497 2.57435e-17)
(0.318293 0.249893 2.57898e-18)
(-0.985613 3.50004 2.7333e-17)
(2.80732 -2.17544 1.90328e-18)
(-0.772485 -0.949558 5.24702e-18)
(-0.50383 -0.132578 4.10359e-18)
(0.920638 0.286811 4.56639e-18)
(-0.377544 -0.268828 6.8216e-18)
(0.329674 9.15867 1.75492e-18)
(-0.492034 7.89362 -1.04964e-18)
(4.4224 7.23791 6.27517e-18)
(6.11686 1.44393 1.52072e-17)
(4.35548 3.34627 2.62712e-17)
(-0.974269 -0.612787 1.5482e-17)
(-0.546151 -0.280183 7.70921e-18)
(-0.0535008 -0.619011 2.58894e-17)
(3.09492 -4.67494 8.80175e-18)
(-1.05048 -0.935106 7.1748e-18)
(2.60889 -1.76456 2.6415e-18)
(1.78581 -1.18228 2.6049e-17)
(5.02255 1.88639 2.61501e-17)
(-1.06976 5.09289 1.27039e-17)
(-1.05703 1.82969 3.00416e-17)
(2.83397 9.31015 9.42578e-18)
(5.39159 3.76616 1.19222e-17)
(1.01365 9.66829 2.43344e-17)
(-1.07356 7.19256 -1.91233e-18)
(-1.05522 -1.05003 4.93017e-18)
(-0.862704 -0.918923 1.09801e-17)
(-0.277396 3.21667 3.41424e-17)
(-2.77819 -3.85261 2.09167e-17)
(0.917098 7.41304 2.27791e-17)
(4.37374 -2.14945 5.85796e-18)
(0.294308 -0.287032 3.88609e-18)
(0.742507 6.20161 2.53463e-17)
(-0.108279 0.20863 2.50068e-18)
(4.94469 -0.145002 6.32588e-18)
(1.10358 -5.92421 3.00347e-17)
(2.93711 -3.85156 2.75741e-18)
(-1.15229 3.7476 2.31504e-17)
(0.648186 10.0171 1.64788e-17)
(-0.483035 1.92753 3.72375e-17)
(3.7322 2.61111 5.05075e-18)
(1.74226 -6.00361 2.9019e-17)
(-0.104538 -3.61184 2.37857e-17)
(-0.772627 -0.650686 2.02332e-17)
(-0.660891 -0.963456 8.02073e-18)
(-0.180258 -0.066497 8.08905e-18)
(0.628879 4.64775 3.97753e-17)
(0.0523839 -5.60177 2.72783e-17)
(-0.856263 -0.0170411 2.1394e-17)
(-1.13907 -0.78787 6.68656e-18)
(2.21596 -5.88641 2.32251e-17)
(1.54571 -0.957801 -3.00372e-18)
(2.7738 -3.37457 4.25905e-18)
(0.276095 10.0392 1.35082e-17)
(5.7118 7.664 3.28542e-18)
(-0.428159 9.56051 4.38436e-18)
(-1.01654 9.21722 1.05564e-18)
(-0.618516 -0.864713 7.39788e-18)
(3.73122 6.70911 2.18543e-17)
(5.4845 2.23224 1.30656e-17)
(-1.75692 2.32577 3.63117e-17)
(0.160874 0.271739 4.14033e-18)
(-0.107861 -5.48333 2.66832e-17)
(2.47625 -2.7531 1.23998e-18)
(2.17383 -5.42544 1.80713e-17)
(5.37275 7.74946 3.11878e-18)
(3.87878 7.6145 1.6377e-17)
(0.305565 -0.928 1.9078e-17)
(-0.365275 -0.149242 9.47589e-18)
(-1.26287 -0.814314 1.54962e-17)
(3.66366 6.81611 7.25728e-18)
(0.848529 0.26775 6.38546e-18)
(4.46435 1.37312 2.79313e-17)
(-0.813852 -0.296716 6.61192e-18)
(0.0501206 -0.163927 4.20377e-18)
(-0.216953 -0.393241 5.67782e-18)
(-2.05873 7.72576 -8.20271e-19)
(4.86789 4.75546 1.02451e-17)
(-1.10122 -0.870984 7.5877e-18)
(-0.571902 -0.178973 7.23868e-18)
(-1.06361 -1.11288 9.09866e-18)
(-0.953709 -0.864851 5.03512e-18)
(4.7157 3.33053 3.35177e-17)
(0.198956 -0.0732417 2.68867e-18)
(0.920439 -0.421672 2.29403e-18)
(2.32365 -4.69564 5.32824e-18)
(0.251839 3.92649 3.42174e-17)
(1.39472 -2.04987 1.4339e-17)
(3.71956 1.22244 2.18745e-17)
(-2.24741 5.67304 5.6652e-18)
(5.01434 -3.67841 9.58891e-18)
(-0.175466 2.58139 4.05967e-17)
(0.691664 9.4076 2.70734e-17)
(-1.89094 -0.106084 4.1032e-17)
(-0.150175 0.28317 3.27009e-18)
(-0.470897 0.384925 4.16836e-17)
(0.355195 -0.169731 4.2271e-18)
(-0.356486 -0.331743 1.44145e-17)
(0.4506 -0.298865 5.91377e-18)
(1.7792 1.18516 -3.91261e-17)
(1.69609 -2.21443 1.89638e-17)
(-0.802985 -1.02136 8.51096e-18)
(0.30653 0.362153 5.89892e-18)
(0.213697 0.60467 2.60394e-17)
(0.318439 9.70264 2.64362e-17)
(-0.874052 -0.642652 2.28539e-17)
(0.64281 -0.189427 4.61352e-20)
(2.50349 -2.39241 -2.35617e-18)
(4.67721 -0.561359 5.75471e-18)
(0.377415 -1.72498 2.90641e-17)
(-1.22138 -0.775178 7.12801e-18)
(2.40463 -4.34208 3.03959e-18)
(0.880459 7.00617 2.2913e-17)
(-0.74467 -0.110966 3.13731e-17)
(-0.213686 9.92839 1.9171e-17)
(0.146379 -1.21219 1.95187e-18)
(-1.68502 9.30768 7.46786e-18)
(-0.640448 -0.201532 7.36267e-18)
(-0.107973 -0.235027 7.23907e-18)
(1.17738 -6.27508 2.6847e-17)
(0.891781 0.0141601 5.72e-18)
(-0.60336 -0.697295 7.54422e-18)
(-2.47308 3.23784 2.9424e-17)
(5.58378 2.12781 1.7012e-17)
(-0.812398 9.85439 1.24982e-17)
(0.540943 -0.321601 1.40705e-18)
(0.121415 -0.276562 4.73793e-18)
(-0.0687066 -5.99983 2.98207e-17)
(-0.0924853 0.319296 7.65531e-18)
(2.03909 -3.60377 3.83939e-18)
(3.76616 3.24553 2.1954e-17)
(-1.10356 -1.008 1.57905e-17)
(-0.0435388 0.382837 4.94052e-18)
(-0.153366 0.158738 1.81326e-17)
(0.527837 -0.352138 9.97183e-19)
(0.315602 -0.26246 6.37391e-18)
(1.45063 -6.14275 2.24218e-17)
(-2.33475 8.9399 5.00993e-18)
(2.8646 -1.46641 4.59004e-18)
(-2.83161 6.97272 -2.05067e-18)
(0.758834 0.169452 1.15892e-17)
(0.396489 -0.269787 7.54676e-18)
(-0.399746 -5.94906 3.00863e-17)
(3.19463 7.43565 6.16141e-18)
(3.52482 0.212045 2.13643e-17)
(-0.700105 0.0447747 4.62364e-18)
(3.36363 1.8738 2.47112e-17)
(3.5758 7.64274 1.91403e-17)
(2.2528 -1.63279 -1.96305e-18)
(0.271382 -0.473935 1.0138e-18)
(-0.386654 0.43835 6.95579e-18)
(-1.4143 -1.1033 9.53584e-18)
(-0.865857 -4.21231 1.98871e-17)
(-0.576647 -0.101711 4.95406e-18)
(4.27452 -2.41972 7.05074e-18)
(-0.702153 -0.753296 6.80773e-18)
(-2.8578 4.9657 5.46219e-18)
(4.956 8.35425 2.60697e-18)
(-0.343026 -0.57389 6.48642e-18)
(0.577215 -0.270001 3.53465e-18)
(5.36757 1.85888 1.47069e-17)
(1.4527 -5.40614 1.158e-17)
(1.90708 -3.25661 2.89505e-18)
(5.30677 -0.987394 6.00093e-18)
(-0.86737 -0.885256 8.33867e-18)
(4.19509 4.3558 1.80412e-17)
(-0.293713 -1.75446 2.4589e-17)
(-0.37074 -0.466724 1.98657e-17)
(-3.19892 3.5423 1.84279e-17)
(3.53076 8.36175 1.6295e-17)
(0.165468 -0.149196 5.28069e-18)
(-2.96725 1.76139 4.05333e-17)
(-0.00499382 1.09268 5.16022e-17)
(3.01931 -1.83668 4.8757e-18)
(0.562481 0.144756 1.20066e-17)
(-0.401428 0.337199 3.5982e-18)
(0.455302 -0.192607 7.04501e-18)
(-0.221396 0.130019 4.57953e-17)
(0.856121 0.200706 -2.49566e-17)
(0.428168 3.36503 3.95887e-17)
(1.51731 -5.02382 7.21635e-18)
(0.462928 8.3697 2.51858e-17)
(0.0569548 9.19761 2.88925e-17)
(-0.922377 -0.286811 5.77973e-18)
(-0.600106 -0.928716 2.64454e-17)
(0.422274 2.88185 5.6146e-17)
(-0.772629 -5.92479 2.75652e-17)
(-0.65398 -0.719056 8.22998e-18)
(-3.11213 -4.94448 3.11708e-17)
(0.721595 4.82371 3.14365e-17)
(-1.21308 -0.909167 1.1996e-17)
(0.156198 0.536472 7.96851e-18)
(-0.406912 9.44052 2.8929e-17)
(5.99106 0.619635 2.46366e-17)
(4.45179 8.27708 3.78124e-18)
(-0.703516 -0.251469 1.40657e-17)
(-1.13026 9.4574 2.10816e-17)
(0.616087 0.379201 1.22418e-17)
(1.87298 -1.49629 -1.30769e-18)
(-0.883191 -1.01617 1.82551e-17)
(0.395568 -0.0690942 5.79819e-18)
(0.809842 -0.171039 6.52934e-18)
(0.127382 -0.415282 3.09664e-18)
(0.527464 -1.96376 1.4699e-17)
(1.6219 -4.54628 2.16026e-18)
(-1.76324 9.28385 1.87937e-17)
(2.45615 -1.43697 3.15701e-17)
(-1.20732 -1.11112 7.74688e-18)
(-3.60897 2.09921 3.46163e-17)
(-0.16023 0.547112 6.77186e-18)
(-0.888949 -0.0517719 8.88737e-18)
(-0.549124 -0.598966 6.8987e-18)
(1.73918 -2.74472 -7.4575e-18)
(0.38933 -0.404289 3.44306e-18)
(4.51937 -2.83435 6.88388e-18)
(-1.19958 -5.52126 2.73655e-17)
(1.54939 -4.16826 2.2587e-18)
(4.40143 3.00493 2.10686e-17)
(-2.96702 -1.01306 3.28459e-17)
(0.285641 -0.392104 4.58283e-18)
(-0.770977 -0.0872625 4.75996e-18)
(0.123936 -6.15722 2.58495e-17)
(-0.343701 -6.00009 2.88338e-17)
(-3.95512 5.22959 2.19393e-18)
(-3.5543 7.23471 2.83164e-18)
(-1.09906 -0.938695 8.22584e-18)
(3.4605 5.27996 1.60798e-17)
(-2.71929 8.68138 1.29017e-17)
(0.205407 0.0372037 5.02724e-19)
(0.973934 -6.15099 1.51643e-17)
(0.0695223 -0.351231 5.827e-18)
(3.54837 2.76301 2.85831e-17)
(2.24578 7.07037 9.0622e-18)
(5.59611 -1.49017 7.13487e-18)
(-0.776543 -0.777795 3.04265e-17)
(0.197662 0.596306 1.14619e-17)
(-1.03453 -6.10058 3.08727e-17)
(-0.496912 -0.0606546 5.4796e-18)
(0.714728 -1.37302 -7.12978e-18)
(-0.700786 -0.437251 6.68366e-18)
(-0.667098 -0.781414 8.57635e-18)
(1.20754 -3.7519 -8.62424e-19)
(0.522048 0.163441 1.17927e-17)
(-0.209759 0.426082 5.05017e-17)
(-0.00339432 -0.173876 7.18107e-18)
(0.594646 -0.373272 3.2697e-19)
(0.135935 1.73251 5.23224e-17)
(0.409665 7.55711 2.77168e-17)
(-0.457968 -0.988763 2.49114e-17)
(0.863122 -5.68879 1.14026e-17)
(-0.469966 0.450798 6.7036e-18)
(-0.0486882 0.609644 8.62318e-18)
(0.233079 -0.413134 2.20626e-18)
(0.00938281 8.0263 2.41695e-17)
(0.0985003 -0.0226304 -1.36096e-18)
(-0.742092 -1.14291 1.02999e-17)
(3.2027 8.44408 1.79016e-17)
(-0.444406 8.75517 3.26055e-17)
(0.561421 0.239055 1.3226e-17)
(-1.10193 -6.21284 3.14956e-17)
(-0.0507562 -0.0666804 2.01173e-17)
(0.360762 -2.39932 -8.96918e-18)
(-4.67941 3.04297 1.11773e-17)
(1.68557 -2.5704 -1.61589e-17)
(-0.454018 -0.378936 4.18472e-18)
(-3.78319 -0.0865819 3.19592e-17)
(0.209562 -0.423693 1.46054e-17)
(-0.152084 -0.247502 4.32026e-18)
(0.701102 -0.207372 2.98207e-18)
(0.201588 -0.589722 3.3552e-18)
(0.871742 -5.09629 2.88313e-18)
(-0.936603 8.87351 3.26881e-17)
(0.182112 0.0383751 7.23834e-18)
(4.85432 1.57215 3.63537e-18)
(-0.361616 -0.621178 6.95785e-18)
(-4.22779 6.53174 2.05561e-18)
(-1.00581 -1.23253 7.94663e-18)
(-3.40636 8.20803 1.16886e-17)
(0.676885 3.93191 3.71537e-17)
(-4.55638 4.55847 1.56301e-18)
(0.619477 0.153726 1.27655e-17)
(0.557282 -0.401578 1.22398e-18)
(-1.79558 8.63794 2.76868e-17)
(1.03047 -3.60481 -1.07819e-17)
(-0.120236 0.0233059 1.68096e-18)
(5.80145 -1.8022 8.75643e-18)
(0.650744 0.147148 -3.26312e-17)
(-0.600969 0.190733 9.71013e-18)
(-1.20933 -0.150342 -1.35561e-18)
(-0.284663 0.506195 5.87935e-18)
(0.966612 -4.87852 2.11925e-18)
(-0.948085 -1.0675 8.21376e-18)
(0.845287 2.25166 6.10011e-17)
(4.32745 2.87603 2.05103e-17)
(4.84503 1.76348 1.31046e-18)
(6.07701 2.31536 8.74533e-18)
(4.0611 8.78664 2.72497e-18)
(1.07197 -4.91595 -9.79455e-18)
(0.793537 -0.308844 2.425e-18)
(0.0399568 -0.0117472 4.38929e-20)
(-5.34626 3.36427 1.34588e-18)
(0.561301 -5.30858 -4.0715e-18)
(-2.43397 8.36406 2.55338e-17)
(-4.36151 -4.8205 3.68466e-17)
(0.83503 -4.51927 1.67424e-19)
(-0.891025 -1.0003 9.4924e-18)
(-0.717603 0.0169672 3.74733e-18)
(-0.675299 -1.16939 1.23433e-17)
(-0.254901 -0.155418 6.65121e-18)
(0.256696 -0.221295 3.70538e-18)
(-0.690972 -0.276996 2.96941e-17)
(-5.24705 1.53765 1.80251e-17)
(-0.870749 -0.931848 1.96987e-17)
(1.53557 0.409682 -2.20253e-17)
(0.226394 7.10164 2.96532e-17)
(0.0467972 -0.308288 6.41934e-18)
(0.127818 -6.2568 1.85252e-17)
(-0.495623 0.298305 8.62099e-18)
(-0.499199 -1.15808 1.03327e-17)
(0.178489 -0.244196 2.90389e-18)
(0.422206 5.5617 3.63638e-17)
(0.182935 0.314102 8.76417e-18)
(1.16394 -2.79492 -1.53527e-17)
(2.7049 4.92814 1.45867e-17)
(0.168238 0.466568 2.0215e-17)
(6.18356 -2.03554 2.95137e-17)
(0.642715 -5.34586 -3.68978e-18)
(-3.65913 -2.85673 2.086e-17)
(0.160818 1.31102 5.32112e-17)
(-1.22695 -5.86349 2.90913e-17)
(4.52701 2.55326 2.23803e-17)
(-0.353196 0.116629 8.32163e-18)
(0.394626 0.877899 1.66418e-17)
(-1.03549 -5.82954 2.70977e-17)
(-0.172001 7.36598 2.87768e-17)
(-0.307162 -0.539699 6.48478e-18)
(0.760644 -4.43992 -2.84929e-18)
(0.344185 -6.18365 1.36051e-17)
(0.502689 -0.317001 7.1512e-19)
(0.309734 2.32944 5.09694e-17)
(0.0820498 0.938276 1.40982e-17)
(-0.376756 -0.263607 1.67184e-18)
(-0.0415322 -0.704074 3.71046e-18)
(-0.738725 -1.34948 6.96304e-18)
(1.31224 -4.50044 -1.92247e-19)
(0.591879 -4.00864 -2.91107e-17)
(-2.26848 -5.62533 3.18326e-17)
(4.15092 -0.436176 8.79141e-18)
(-5.81217 1.92548 8.72635e-18)
(-0.763464 7.9777 3.85998e-17)
(-0.478159 -0.0606376 9.93297e-18)
(-0.944234 -3.95054 -1.32084e-17)
(0.378636 -5.47795 5.24763e-18)
(3.72804 1.53877 1.02352e-18)
(0.254092 -0.218013 5.96842e-18)
(-0.0547163 0.736344 1.16285e-17)
(-0.529671 -0.0970807 -1.19584e-18)
(-5.57828 3.91602 5.15497e-18)
(0.268022 -0.302106 1.84113e-18)
(-0.767669 -1.27823 7.29348e-18)
(0.577908 -0.204819 5.60391e-18)
(0.450778 0.426858 1.06639e-17)
(3.43236 8.574 3.18134e-18)
(-1.75082 -6.19009 3.37104e-17)
(0.223204 -0.148217 2.3982e-18)
(-3.23239 7.70811 2.22772e-17)
(0.344379 -5.2599 3.42278e-18)
(-0.136864 -0.427052 5.87626e-18)
(-4.45482 6.48876 1.11376e-17)
(-1.23587 7.94361 3.88975e-17)
(-1.28575 0.126288 -3.62863e-18)
(-5.35183 -0.894219 1.46857e-17)
(0.301628 -4.80873 -2.36957e-17)
(-0.237887 0.460844 1.08584e-17)
(-0.963509 -1.25022 1.00483e-17)
(-0.589509 -1.13911 8.67106e-18)
(-0.898354 -1.30306 7.23258e-18)
(0.787739 -3.01825 -1.3256e-17)
(-5.91398 4.26398 1.06838e-17)
(0.538042 -5.02095 2.20507e-18)
(0.0181452 0.172784 -5.64794e-19)
(5.60012 -2.13973 9.47691e-18)
(0.38521 -0.0239043 2.82935e-18)
(-0.653836 -0.420729 1.6463e-17)
(-0.533742 -1.39545 7.02337e-18)
(0.0816511 0.0472114 -7.67815e-19)
(0.342317 1.06923 1.2048e-17)
(-0.227283 0.475556 3.10338e-17)
(-0.313455 -0.70761 8.86593e-18)
(-6.25372 2.60768 3.9689e-18)
(0.24659 1.06992 1.50896e-17)
(2.96463 3.7156 1.63661e-17)
(-2.1916 7.48491 3.45294e-17)
(0.501126 0.067451 2.41021e-18)
(0.418315 -4.13644 -1.94374e-17)
(-5.94815 0.0335894 1.62503e-17)
(0.748094 4.65188 4.8943e-17)
(0.298039 0.714125 9.12234e-18)
(-0.353104 0.0908299 1.00315e-17)
(0.639417 -0.285089 7.20775e-19)
(0.334104 -5.88232 -1.55078e-17)
(-5.03514 5.64479 1.19765e-17)
(-2.29543 -5.97127 3.46686e-17)
(0.624293 5.19192 4.59796e-17)
(0.622663 -6.09371 -1.59166e-17)
(0.0508091 0.323869 8.24053e-18)
(0.174476 6.24129 3.73377e-17)
(0.455864 -0.144676 1.01767e-18)
(-0.518405 -1.41811 6.57536e-18)
(0.405372 0.0909491 1.99819e-18)
(-0.705538 0.304846 5.94357e-18)
(0.455896 -4.99645 -2.69056e-18)
(0.0665109 0.813926 1.30706e-17)
(-0.871874 0.810425 4.92087e-18)
(1.96867 5.94196 1.34169e-17)
(0.0385191 -0.140275 1.21769e-17)
(0.763805 -6.01977 -1.23802e-17)
(0.0630684 -5.10459 -2.99306e-17)
(-1.05929 0.621001 6.05772e-18)
(0.0718776 -0.105147 3.27827e-18)
(0.274662 1.81755 5.93542e-17)
(1.75131 -2.81527 4.26984e-18)
(-0.0424898 0.535758 1.13538e-17)
(-6.43886 2.84075 7.50314e-18)
(0.469029 -6.80374 -8.33682e-18)
(1.1476 1.00696 5.75634e-17)
(-0.532428 -1.47123 6.56587e-18)
(-0.208276 6.36025 3.76956e-17)
(5.75162 -2.33127 1.36718e-17)
(-2.62508 7.23606 3.38381e-17)
(-3.77826 7.13384 2.10673e-17)
(0.142698 -0.482592 6.83034e-18)
(0.208216 -5.20221 -1.17765e-17)
(0.0133682 0.143623 1.93523e-17)
(-4.00105 -4.95788 3.65027e-17)
(-0.986275 -5.73027 1.98651e-17)
(-0.621647 -5.88008 1.61822e-17)
(0.089936 -5.88521 6.44423e-18)
(-6.69511 1.08185 2.48977e-18)
(0.160846 0.424532 8.32268e-18)
(-5.02068 -3.40306 2.40529e-17)
(-0.973328 0.391479 -2.14223e-18)
(0.603282 -6.07056 -1.2736e-17)
(-0.169948 0.151115 1.14044e-17)
(0.914356 -0.185096 2.65482e-18)
(-0.686392 -1.69533 6.68915e-18)
(-0.455256 -1.33965 8.16109e-18)
(-1.62024 -5.69709 2.69578e-17)
(0.136851 0.477248 8.21373e-18)
(-0.662028 -1.15962 1.43414e-17)
(-1.84007 -5.79426 2.91157e-17)
(-0.904258 -1.46742 9.80813e-18)
(0.988926 -5.48979 -7.00806e-18)
(0.00673605 -5.57198 4.3082e-18)
(0.189696 -0.199354 3.5122e-18)
(1.01075 -0.190936 3.32268e-18)
(-0.83995 6.88924 4.8005e-17)
(0.591739 0.456541 2.48978e-19)
(-0.532953 -1.54509 6.10967e-18)
(-0.0928633 -0.115937 1.86424e-17)
(0.0222865 -6.12543 -1.44931e-17)
(-0.97826 -5.97637 -1.57414e-17)
(-5.68803 -2.48182 2.29395e-17)
(-0.0182546 -0.828114 8.35209e-18)
(0.0471894 -0.0181555 4.8113e-19)
(0.23617 -5.3136 2.25526e-18)