/*--------------------------------*- C++ -*----------------------------------*\
  =========                 |
  \\      /  F ield         | OpenFOAM: The Open Source CFD Toolbox
   \\    /   O peration     | Website:  https://openfoam.org
    \\  /    A nd           | Version:  8
     \\/     M anipulation  |
\*---------------------------------------------------------------------------*/
FoamFile
{
    version     2.0;
    format      ascii;
    class       volScalarField;
    location    "0.3";
    object      alpha.water;
}
// * * * * * * * * * * * * * * * * * * * * * * * * * * * * * * * * * * * * * //

dimensions      [0 0 0 0 0 0 0];

internalField   nonuniform List<scalar> 
1924
(
9.88938e-06
6.74025e-06
2.02611e-06
2.07899e-06
8.7949e-06
1.82304e-06
6.56593e-05
0.000340023
0.00112794
4.55963e-06
0.00258283
0.00258603
0.31385
0.00258413
7.51035e-06
1.34667e-05
0.0721775
0.00258475
0.00317721
0.00130069
0.990274
0.000235011
4.85706e-08
0.00252583
5.19581e-05
0.39526
0.404348
1.53925e-06
3.84375e-05
-5.63991e-19
1.97236e-06
0.0341541
0.0130551
0.00364772
3.91735e-06
1.69235e-09
0.0319371
5.86741e-05
0.0252925
0.000235482
0.218733
0.646929
0.388669
3.55623e-10
3.47483e-07
0.222881
0.0873775
6.95776e-07
0.999993
0.999997
5.74601e-11
0.74574
2.73704e-06
1.53501e-12
0.262534
9.19891e-06
0.325486
0.00045131
9.7132e-07
4.72603e-06
5.20234e-10
0.000446715
5.05829e-10
0.997919
1.44576e-13
7.10909e-07
0.00010059
2.04846e-08
0.0670003
1.48137e-10
0.767907
0.000205233
0.792431
-3.8147e-08
-4.07146e-09
0.000112652
1.53163e-06
8.59106e-09
2.6203e-07
1.23325e-09
4.96863e-09
0.371651
0.471497
0.98086
0.000971814
7.60045e-08
8.87422e-07
4.30178e-05
1
0.979429
0.00206782
0.122957
0.259322
0.123391
0.979748
1.61183e-15
1.72243e-07
1.79057e-07
3.67144e-05
0.000154314
2.84896e-06
0.980345
0.000140672
0.00490736
0.0322018
2.2747e-10
7.5994e-05
0.00111912
6.50603e-07
0.249222
1.43788e-07
0.021259
8.58411e-06
0.240131
2.7499e-07
0.980345
2.02658e-06
1.94142e-06
1.10061e-10
9.38564e-07
0.00796418
1
0.999994
0.785229
4.54059e-05
0.000692788
0.000182056
5.76212e-09
0.234661
1
5.60374e-08
-2.61976e-05
8.85518e-05
0.0314967
0.979748
0.156738
1.37069e-05
1.41944e-05
0.00248235
8.74722e-06
8.02149e-07
0.00145275
0.265665
0.553178
2.0194e-06
1
0.000371456
0.168547
1.17039e-07
5.28498e-12
0.99382
1
0.209778
3.22094e-06
2.18362e-06
0.000309858
1
1.42279e-05
1.01139e-07
0.996157
0.0529507
9.35529e-05
2.26653e-06
1
0.999948
0.0870409
0.0779332
1
5.66871e-08
0.223732
0.000285854
4.51309e-06
1.08438e-10
0.000126981
8.73809e-06
0.36687
0.19689
2.92263e-05
1.46338e-09
4.60707e-06
0.00412919
-1.49556e-07
-3.67455e-09
0.0249554
1
1.92897e-05
0.00575233
0.00644022
4.90768e-08
1.32928e-07
0.000295324
1.78369e-05
1.24406e-07
6.39089e-06
0.0818402
1
0.00281587
0.603202
0.358203
0.834007
0.536984
2.49841e-06
0.108234
0.00084971
9.17124e-06
0.00586061
1.09439e-05
0.835875
0.816918
8.62394e-05
1
0.123474
1.11866e-05
0.0816932
0.00285361
1.38684e-09
1.52072e-08
0.000295324
0.000242362
2.06069e-11
0.000292218
0.50132
0.108234
0.000225711
0.00136082
0.00299403
1.08323e-06
8.82092e-09
0.081492
0.822233
0.257854
0.000125366
0.250854
2.92263e-05
0.00315403
0.999662
4.43646e-06
0.000169856
0.0763196
1
1.64782e-11
0.32009
3.00862e-05
0.860056
0.550517
0.979435
0.000463709
5.16682e-06
3.64816e-09
3.84056e-10
0.0205385
1
0.0783658
0.0991392
4.33705e-08
0.000182643
0.321164
0.533023
0.000309858
8.64125e-05
0.000554814
0.0803119
4.48729e-05
1.59466e-09
0.013161
1.41751e-08
0.0108998
9.79574e-11
0.0272414
0.875466
0.508586
0.99953
0.212958
0.532984
1.129e-05
4.1208e-10
0.00241683
0.00362535
-0.00016871
0.762412
0.698663
1
0.000243103
0.0557856
0.528886
2.63639e-06
6.68448e-08
1
5.46367e-05
0.516754
0.0271334
1.60834e-08
0.00571276
5.56437e-07
0.933897
0.999982
0.000154246
0.863796
1.66623e-11
1.9023e-06
1
0.0004533
5.33326e-05
1.66475e-09
0.00088244
0.440214
0.00337614
8.10553e-06
0.531743
3.01088e-07
0.978684
2.40039e-15
0.0520475
8.82489e-07
5.54764e-08
0.000512994
0.00362906
7.52026e-05
0.0765706
0.0321482
1.45179e-08
0.269828
3.85238e-06
0.999947
0.401964
3.81757e-09
0.178282
0.529823
2.50006e-06
1.29064e-05
0.745926
6.0193e-06
1.31892e-07
0.000347746
1.93291e-11
0.006849
2.38064e-06
0.0208122
0.00200666
5.3166e-05
1.73593e-08
0.935843
4.29923e-06
0.860056
3.47029e-06
5.14964e-06
0.551001
1.04554e-05
4.01922e-18
0.438238
0.143094
0.0975074
0.999887
8.35291e-09
0.978588
2.7496e-10
1
4.51272e-05
0.312617
4.22783e-19
0.0074422
2.60596e-08
1.98724e-08
3.79522e-07
0.000651797
1.4819e-05
4.12718e-06
0.00080685
0.0110894
0.000955913
-2.68815e-09
0.00677231
0.131181
1.14308e-11
0.00520595
3.48333e-05
2.23981e-08
4.68315e-07
2.66727e-05
2.03955e-06
2.30953e-07
2.0284e-10
0.471531
0.0640366
0.471367
4.72922e-08
2.84209e-11
1.02975e-06
0.0206885
5.25488e-05
0.999846
1.66974e-08
0.182243
1.82328e-07
4.77286e-05
9.35529e-05
0.0276916
1.41617e-05
0.00018932
7.60612e-07
1
1.44859e-11
0.406671
0.000774822
1
1.40803e-07
1.46414e-07
1.1469e-06
0.0592092
0.0620429
0.000953418
1.56087e-10
4.48175e-05
6.91377e-05
0.0216538
2.0644e-10
2.14967e-10
-6.77635e-09
1.36552e-11
1.71987e-07
9.33783e-10
0.000216608
4.59819e-09
0.864124
0.000407617
-6.18379e-09
7.34653e-08
4.38905e-05
1.32102e-06
7.28388e-05
6.5406e-08
3.23879e-11
4.84177e-06
4.22921e-11
0.000205476
0.000339679
6.1972e-10
0.010398
5.48171e-05
0.000315653
0.525117
0.0040994
0.0298277
1
4.47388e-07
0.993353
0.000433332
1.43835e-11
0.0700421
-3.83157e-08
6.84685e-08
5.14994e-08
0.0415609
0.0013318
0.00119802
0.00412565
-9.01753e-12
2.76007e-09
3.88521e-11
4.8739e-08
7.97458e-09
9.31806e-06
5.75525e-05
2.13508e-11
0.107945
4.37877e-08
9.42173e-09
0.0275918
5.12248e-05
2.77379e-07
0.00696961
2.72507e-10
6.3629e-06
1.02344e-09
4.89512e-06
1.80084e-09
0.954858
4.51101e-05
5.50679e-08
2.46917e-09
0.00024566
5.12248e-05
2.7583e-08
3.44233e-08
1.25325e-06
0.000303205
0.000141934
1.04849e-14
1.54102e-06
4.54974e-08
0.000432571
8.07307e-06
6.81769e-11
1.72395e-07
5.571e-12
2.09178e-09
5.41425e-09
3.65899e-09
0.000723307
0.999983
3.13019e-11
-3.92772e-10
0.21516
7.27622e-05
0.0043868
1.27672e-11
2.33634e-11
0.000165562
1.60945e-08
-9.45615e-11
3.24141e-12
5.90102e-10
1.93347e-09
0.0252523
9.22722e-10
1.26962e-09
1.14207e-06
0.180878
5.0009e-05
2.14188e-10
5.6701e-12
-1.89317e-11
3.07764e-11
1.35718e-11
0.0290116
0.212771
5.39173e-10
2.11447e-09
0.00188872
0.0275334
1.36125e-14
6.05027e-05
7.56499e-10
9.01687e-12
0.000179878
2.62644e-10
0.000227541
1.19383e-05
1.17684e-05
8.36799e-06
1.07306e-07
0.999967
9.23655e-10
1.10559e-11
3.59021e-12
1.75938e-06
0.0062007
0.999723
1.02812e-08
3.08872e-06
6.92514e-06
2.10943e-09
2.65382e-10
2.55526e-11
0.000115246
1.33311e-11
1.28385e-09
2.29948e-10
1
0.489171
1.28338e-06
1.22989e-12
0.000527481
5.02141e-10
0.0428
1.70833e-08
8.8193e-13
2.15964e-07
6.17265e-05
2.50203e-09
2.54255e-11
1.23792e-07
2.33467e-05
1.16256e-10
4.32304e-11
2.78771e-11
6.66429e-13
0.000770237
7.87869e-13
1.10117e-10
1.60329e-07
1.08037e-09
4.7998e-05
4.95175e-11
1.46586e-12
1.30094e-09
-1.03028e-12
-3.05559e-19
5.04522e-11
0.999089
0.000506225
8.78446e-12
0.98774
1.50307e-11
4.30218e-10
6.85837e-13
2.46622e-11
8.56219e-08
6.36611e-10
1.09027e-14
4.67721e-18
-3.27261e-15
0.0271886
0.999948
1.36243e-10
7.07542e-05
0.170913
1.22414e-13
1.27844e-06
1.41684e-23
1.43535e-05
3.14696e-12
8.85693e-12
5.45029e-09
1.25192e-08
9.25017e-10
0.0282879
1.91718e-05
2.23414e-15
0.999979
-2.39371e-12
4.22812e-11
3.68287e-07
2.02903e-07
0.00969077
8.71259e-09
1.30571e-13
7.5569e-11
0.00220058
2.63801e-11
3.30762e-11
2.20175e-06
5.13722e-08
1.61546e-15
4.73336e-11
1.31262e-19
1.35752e-05
1
1.15962e-07
2.12803e-13
2.71026e-10
4.99143e-11
8.65574e-10
1.88679e-06
4.36465e-12
-1.76776e-13
1.58716e-08
1.86615e-17
2.10201e-08
-4.83557e-05
2.28981e-14
1.24003e-11
5.38363e-06
0.0276061
6.04973e-13
3.03419e-12
9.17006e-17
3.1617e-12
4.17288e-05
3.11669e-11
2.06041e-10
7.26947e-16
4.23407e-10
1.89103e-11
8.2481e-13
0.999362
9.67578e-07
5.55331e-11
1.00402e-12
1.05646e-10
1.67225e-09
7.8763e-13
-8.65071e-06
4.94831e-08
7.03136e-13
7.35861e-12
0.000249268
1.07246e-12
4.82278e-18
1.39316e-11
1.82592e-15
1.00356e-16
1.51647e-10
4.96633e-12
2.07308e-07
0.0270132
4.0145e-13
1
-2.32381e-15
1.26469e-13
0.911751
0.0254454
0.000108506
1.21059e-06
2.82029e-15
4.21382e-16
1.53238e-11
1.14204e-11
1.01128e-10
2.24462e-09
5.40543e-12
5.06173e-21
5.96926e-08
0.000297989
1.64759e-20
2.18468e-08
2.65741e-11
1.89617e-07
1.06177e-14
7.66412e-12
1.11254e-13
9.08962e-17
1.33646e-11
1
3.33613e-06
0.000421576
2.17083e-12
1.53964e-17
7.60334e-20
0.897753
3.57094e-09
1.37084e-11
1.30361e-13
3.01209e-12
2.81125e-13
0.484164
2.90849e-05
4.41302e-23
6.62821e-06
2.37904e-15
2.71779e-13
9.43311e-16
1
1.45302e-10
8.82169e-12
1.17775e-07
3.2432e-13
1.38695e-09
2.01527e-11
1.69841e-19
5.30988e-19
4.01702e-14
1.4013e-12
1.45166e-19
0.00258033
1
1.66456e-11
6.16491e-12
1.43974e-12
2.27941e-15
6.91022e-09
3.41865e-13
4.45121e-05
1
0.999998
0.0276093
1.24235e-05
1.59907e-21
1
2.70567e-12
0.000189823
1.03679e-14
8.14302e-19
1.59596e-12
1.7001e-09
6.24535e-18
1.13869e-08
1.32171e-11
1.15097e-13
1.39334e-08
6.51106e-13
8.19894e-08
1
2.03697e-12
5.35339e-05
2.35379e-18
5.09749e-12
1.62538e-07
6.03286e-13
3.47387e-12
2.10969e-25
3.60028e-12
0.0258479
0.00353282
0.000889237
1.8483e-06
1.50862e-15
6.68474e-10
-9.72416e-19
0.999997
4.06544e-19
1.79556e-20
5.66123e-18
2.99694e-13
1.77948e-11
1.28608e-13
-2.49815e-17
1.52256e-12
1.40035e-10
2.87853e-17
3.48299e-07
1.39958e-06
3.98569e-09
0.920598
2.48556e-31
2.16904e-16
0.999995
2.97655e-12
2.74322e-14
4.24446e-12
9.35619e-07
-2.20146e-15
1
2.70214e-21
3.30196e-15
3.57448e-20
1.87356e-12
1.62525e-15
4.89104e-10
1.02737e-10
3.29465e-24
0.0254262
-7.51261e-18
1.12702e-14
1.22172e-15
1.17962e-16
5.1758e-12
1.43161e-12
3.05834e-15
2.04948e-21
8.32125e-15
4.78949e-14
9.0402e-14
4.73206e-09
4.46434e-11
6.72211e-10
1.61968e-11
6.94437e-15
7.57123e-17
0.993953
0.00231261
3.02097e-20
2.3786e-10
8.06341e-09
1
9.82684e-21
1.04086e-10
9.07086e-12
3.83425e-13
2.44258e-18
0.00984339
-7.14694e-16
1.5948e-22
-3.53672e-15
3.62282e-16
6.58454e-13
3.34688e-22
4.3019e-13
6.91029e-18
3.65982e-09
3.81061e-13
9.04905e-20
9.22185e-14
0.000198041
-5.4327e-26
2.27335e-14
9.74582e-17
6.01729e-10
8.43945e-24
2.06744e-20
4.52019e-17
1.733e-16
-9.23043e-29
0.0259586
4.92954e-13
1.23596e-05
2.40547e-15
5.36042e-28
1
6.47848e-12
0.999933
6.46221e-15
3.0007e-13
2.25838e-06
9.44085e-15
1.51459e-11
2.17045e-15
0.00258475
9.32344e-17
2.91109e-15
5.68795e-13
7.79733e-16
0.88849
6.62651e-22
-1.95899e-21
1.66303e-19
5.11628e-19
5.55812e-15
5.06542e-29
-1.26226e-17
8.97183e-23
5.62858e-06
3.10162e-14
9.74581e-21
4.07071e-11
1.80749e-12
-2.4528e-20
3.32246e-26
4.34033e-11
4.38755e-22
2.38911e-10
0.428376
3.2696e-19
7.44307e-17
2.43462e-19
2.26807e-16
2.54183e-26
3.25595e-10
4.17353e-14
9.78975e-13
7.58272e-06
-2.36935e-18
1.43281e-12
1
1.19943e-18
-1.96015e-21
6.90227e-15
0.0023857
0.000993818
3.64805e-12
4.44377e-14
3.87861e-14
7.67207e-12
1.23303e-23
5.93521e-15
2.92283e-05
8.13868e-16
3.40434e-20
1.55722e-12
1.76063e-17
0
-1.0564e-14
6.247e-17
1.44652e-12
2.71513e-23
9.92548e-15
1.26636e-13
2.1834e-16
2.92064e-25
5.44814e-17
1.61836e-27
2.09127e-12
0.999993
4.50932e-18
3.30764e-14
0.886485
1.16961e-31
0.000316047
-8.27207e-24
9.38526e-15
1
3.19745e-17
1.80984e-16
0.000425199
3.8705e-29
1.80447e-16
-8.9834e-20
1.3844e-13
1.03643e-11
3.34747e-29
1.08778e-15
1.09929e-15
3.95332e-09
2.58358e-12
2.06908e-20
0.999901
2.05995e-16
2.00948e-12
1.19788e-17
0.00101848
9.33434e-18
4.48876e-13
1.91496e-30
1.39177e-15
1.28149e-11
-9.55614e-18
2.61789e-15
1
0.999999
1.79738e-21
8.59782e-07
1.04362e-17
3.19745e-17
1.60147e-15
2.02397e-19
8.43053e-13
5.18114e-24
3.853e-15
2.52843e-16
4.6201e-26
1.26919e-12
3.96237e-28
8.28072e-26
1.26825e-17
8.59878e-18
1.77629e-06
-1.89573e-18
0.00258468
-2.53314e-25
1
5.42926e-15
-2.27965e-26
2.63912e-16
1.46216e-15
1.51485e-21
2.92466e-22
6.27304e-17
1.06093e-13
4.43083e-17
9.79493e-14
-3.73506e-26
1.18273e-37
-9.75723e-22
0.999863
1.1646e-16
4.19328e-14
3.11021e-17
6.66823e-17
1.3402e-18
1.32925e-07
0.999578
1
-9.5046e-30
8.94386e-20
1.77769e-17
4.72982e-32
3.11211e-32
8.03815e-17
0.00257086
1
5.15061e-15
-1.69209e-32
3.24063e-20
0.000141096
5.90521e-19
7.5626e-16
1.94114e-13
1.033e-16
9.41423e-14
4.48198e-13
1.3721e-18
2.08909e-16
-9.16839e-23
1.00953e-28
1.8044e-16
3.7251e-09
0.000331695
4.96991e-13
-1.27317e-23
9.92096e-20
2.24674e-23
2.11925e-14
-6.4051e-33
3.87224e-21
0.999992
4.12462e-31
2.4791e-14
-8.11685e-21
3.7667e-14
3.9643e-17
3.3811e-32
6.75889e-19
-2.05797e-31
3.16678e-18
1.93069e-19
1.89781e-15
1.01556e-18
1.11944e-22
1.62262e-18
1.38268e-18
2.3743e-15
8.01473e-05
6.77389e-18
1.89706e-18
0.91696
8.59221e-37
1.79659e-26
2.64688e-14
8.65591e-18
5.52215e-18
1.27217e-18
2.27335e-18
7.4481e-18
5.94933e-06
1.28723e-05
1.03785e-16
2.79817e-19
1.51398e-21
4.5483e-09
6.5657e-20
-4.81167e-31
1.39575e-22
6.56531e-18
7.07087e-31
2.62589e-05
1.0549e-14
2.11577e-19
-2.54845e-33
2.93124e-15
1.56937e-16
5.13534e-15
-3.36039e-32
7.05798e-20
1.26539e-19
3.14787e-20
0.000171073
2.03229e-34
2.49587e-18
1.00551e-25
7.42182e-21
1.23637e-14
3.23526e-16
-4.36421e-36
1.3006e-18
7.25515e-25
-2.41031e-22
0.000371456
1.29925e-19
4.0136e-20
2.63909e-05
7.09022e-14
2.69764e-19
-5.5031e-20
-6.17857e-21
6.62792e-20
8.71157e-25
8.76797e-16
1.08627e-23
7.50964e-17
4.16301e-36
8.23487e-20
7.91158e-20
2.70214e-21
2.6439e-32
-7.93267e-36
9.22268e-20
8.36153e-10
4.15214e-17
1.8695e-19
0.912531
0.739724
6.77122e-21
7.52535e-17
-2.42734e-21
1.03694e-18
-5.65502e-24
-8.5259e-24
-1.89961e-31
5.43834e-21
1
7.87152e-19
4.67624e-17
2.71513e-23
9.11301e-13
1.65401e-18
0.191182
-1.03742e-34
3.5613e-20
1.70154e-14
2.0275e-21
-5.08491e-23
2.19187e-27
1.31707e-35
-6.75655e-37
0.000425199
1.54549e-17
2.34962e-20
1
6.56496e-08
7.34122e-20
2.57516e-21
-6.08561e-37
3.50037e-21
1.70692e-29
6.06084e-20
1.89424e-24
3.40363e-32
4.51094e-20
4.39569e-17
1.21967e-16
9.98437e-13
1.13134e-22
2.51336e-16
1
0.999991
9.91369e-21
1
2.81148e-16
9.38951e-22
-4.80783e-39
4.36758e-22
-1.29382e-22
1.15422e-21
9.79209e-27
4.4071e-21
1.39671e-21
1.34939e-17
1
5.6293e-14
2.25936e-20
1.65466e-21
-2.81641e-24
-1.87201e-34
6.18136e-21
0.551005
1
6.36467e-22
3.22014e-22
-3.68287e-27
1
1
7.66524e-18
7.10122e-19
4.1217e-21
1
1.15629e-26
-1.87238e-35
-7.97996e-42
1.47997e-19
7.45809e-13
1.63988e-27
2.03775e-20
1.78289e-19
-1.33149e-25
6.48952e-22
2.89755e-21
6.37063e-22
1.9553e-29
2.41601e-22
5.80023e-26
-9.89519e-25
5.11271e-19
3.68216e-22
7.06234e-35
1.77184e-37
-1.0049e-22
1.95394e-23
1.74532e-21
3.48276e-24
1
3.46825e-21
1.69466e-23
4.4611e-20
2.99681e-23
-2.18336e-22
0.999999
2.27965e-27
1
1
1.16744e-22
2.85453e-22
3.70676e-23
5.5044e-23
1
4.55447e-22
-3.65212e-40
-2.34793e-36
7.37623e-23
3.14201e-28
-8.26384e-25
3.17043e-18
4.17952e-17
-5.04014e-35
-2.32664e-39
5.33993e-15
4.01846e-18
-8.12484e-24
1.82423e-18
3.30169e-34
-1.36933e-34
4.63244e-17
1.75373e-23
4.80123e-23
2.84003e-32
2.01444e-22
2.46989e-13
8.51828e-19
2.16119e-24
5.52076e-23
2.41173e-19
1.12072e-21
4.97185e-25
7.41192e-24
1
2.41959e-23
-1.71495e-39
2.19137e-23
-7.43404e-25
2.99485e-22
8.3927e-24
1.41842e-05
1.8536e-20
7.63367e-21
1
-4.46508e-25
7.63793e-25
3.73506e-14
1.27443e-24
6.6062e-06
8.27121e-31
2.23651e-24
3.18669e-08
9.12229e-06
7.11817e-14
2.36013e-22
-1.22737e-27
5.64282e-08
-1.30731e-42
8.73658e-23
3.49867e-24
2.59714e-19
1.05045e-24
-5.78451e-25
3.53159e-25
3.88819e-26
1.2647e-22
0.171637
5.59862e-24
-7.60838e-27
-1.76422e-40
1.31432e-23
3.64838e-26
-2.08918e-37
8.66442e-24
8.73582e-21
-1.67944e-39
-3.50144e-38
-2.36398e-38
-3.31581e-25
1.9094e-05
8.92795e-10
1
9.15661e-33
1.50824e-24
3.40363e-32
2.08455e-24
1.27329e-26
1
6.03406e-25
3.39865e-24
1.14353e-24
-2.75182e-26
3.01741e-19
7.41082e-10
1.26387e-27
6.03924e-27
1.55334e-13
0.739793
0.276337
-4.12139e-36
1
3.7182e-28
-7.85142e-37
2.85516e-20
-2.29011e-26
4.90367e-20
3.93908e-26
-1.7712e-26
2.898e-25
0.98774
6.6681e-24
0.9999
0.99896
-2.25557e-26
-3.81155e-26
1
9.93454e-13
3.8916e-21
-2.95123e-44
6.86311e-20
1.65653e-30
-1.29932e-43
4.13284e-28
6.51537e-25
1.42162e-37
1
1
4.05022e-26
8.50041e-28
1
2.21456e-27
2.51699e-21
1
2.01164e-25
-9.23989e-28
3.61629e-25
1.13982e-27
0.991032
4.72466e-25
2.26218e-26
0.513583
8.72454e-30
1.06614e-25
1
9.86876e-13
3.68948e-25
1.93364e-23
4.25564e-40
5.87926e-26
6.16551e-22
6.64717e-26
1.04534e-22
4.5083e-27
6.2477e-26
3.87182e-08
8.65834e-26
1.8049e-33
3.26114e-26
1
2.48055e-26
-2.80645e-30
5.52074e-25
6.85751e-40
0.851972
4.34978e-32
1
1.08968e-27
-1.31901e-25
-1.39674e-27
1.68676e-26
1.57872e-24
9.06007e-28
-7.88491e-43
5.36448e-29
7.33496e-27
4.58799e-13
-1.20724e-31
-1.49468e-28
-1.20443e-45
1.86177e-31
4.27089e-17
1.69078e-30
1.32422e-29
-1.73951e-29
1.04379e-27
8.01358e-37
2.3408e-26
1.90918e-22
-4.95437e-39
5.52773e-28
-1.49702e-41
1.37991e-13
6.93464e-27
-1.5092e-29
-3.25011e-29
2.15729e-28
1.3002e-27
8.86825e-25
3.47447e-22
-3.32971e-42
4.99982e-27
2.58496e-26
9.57943e-28
5.06822e-28
1
2.99377e-25
1.30127e-14
3.27351e-23
-2.10636e-27
8.06473e-28
3.0267e-29
1
-7.80741e-28
1
-5.28064e-29
-1.27697e-44
8.76016e-29
1
5.3557e-28
2.59243e-31
2.62591e-13
5.20411e-22
1
2.83126e-29
2.46355e-29
1
-2.11358e-38
1.56533e-37
3.2608e-13
2.61028e-29
-8.41713e-29
-6.94431e-27
1
-1.04378e-31
-7.13951e-31
-1.28009e-45
1.1497e-29
6.97754e-42
1.39529e-30
7.69813e-28
4.61211e-31
2.50698e-29
2.78819e-23
8.05287e-41
8.57992e-23
4.7056e-29
2.33539e-29
1.14699e-26
3.80529e-23
2.78864e-26
1
4.76202e-32
2.58096e-32
1
1.05492e-29
1.1865e-30
1.03341e-27
8.52276e-31
2.41725e-31
8.8654e-26
9.46096e-30
8.21745e-32
2.97956e-25
2.03867e-32
-3.16864e-33
1.01312e-50
4.17052e-25
6.60913e-25
1.23221e-24
1.72645e-07
1.96475e-32
-3.40589e-32
7.24126e-25
4.51506e-31
-1.29309e-32
1
0.912949
0.795002
1.39483e-26
1.7517e-24
6.43885e-31
5.58433e-32
1.33394e-29
1.95151e-31
1
8.55464e-29
1.75191e-29
1.22042e-33
3.66342e-29
2.14995e-49
-5.29167e-42
1
7.4684e-28
9.53987e-33
5.42788e-31
-2.31839e-39
1.54058e-23
2.24187e-34
1.66253e-35
-4.59873e-34
2.36406e-28
1.80494e-35
3.55648e-38
5.89724e-32
1.99677e-32
4.14273e-41
1.00061e-30
8.03661e-29
2.57617e-34
1.6333e-26
1
1.86177e-31
1.86177e-31
9.23034e-33
-3.5568e-41
1.00015e-22
-5.78728e-31
9.68385e-36
5.61214e-34
-2.27781e-27
-1.8732e-36
1.98923e-28
-9.98759e-29
-1.12369e-31
2.46382e-44
-3.86774e-30
-1.49694e-35
6.99437e-24
1.73669e-51
-6.37725e-32
2.74607e-29
-7.67376e-28
1
1
1
-3.1241e-33
1.71848e-33
8.18653e-38
3.573e-37
2.07242e-31
2.28385e-35
1
4.91186e-43
2.73447e-14
9.32743e-38
2.16943e-32
8.46907e-48
9.36931e-32
-4.16562e-31
3.15161e-39
-3.41329e-34
6.72639e-27
1.2117e-13
8.05071e-14
1.04525e-15
-1.91038e-47
1.14628e-32
8.33262e-26
-2.76916e-50
-5.81051e-30
1.94619e-25
2.9367e-35
8.31241e-34
-3.40452e-33
1
-2.6884e-29
7.35087e-29
-8.00525e-50
5.75155e-37
1.69079e-31
1.951e-44
3.16713e-35
2.16228e-39
1.67538e-37
3.72409e-28
-2.52586e-34
4.57024e-32
7.51707e-34
1.16937e-31
-3.51896e-29
6.69411e-29
7.63227e-26
7.57251e-32
2.0302e-29
-3.95398e-28
5.11829e-42
1
-1.15185e-37
-4.03891e-37
-4.02325e-39
9.44393e-22
1.82929e-26
-1.54619e-31
1.51719e-50
1.3644e-49
3.39335e-33
1
5.49627e-33
-2.57089e-36
-1.11688e-36
-2.08695e-34
1.52843e-41
7.72719e-36
1.56999e-33
-9.34255e-36
-3.97611e-35
-2.6733e-35
-1.54917e-33
-6.99693e-38
-3.9529e-39
1
1
-5.3936e-41
-2.22791e-32
-3.71447e-38
-2.88877e-44
0.855895
1.43859e-40
4.99102e-33
-4.13628e-37
-2.084e-37
8.06488e-43
-2.17073e-35
8.25634e-29
9.65369e-29
-1.61011e-42
-1.36639e-41
4.49637e-39
2.24611e-30
4.54896e-22
8.03252e-26
6.13076e-27
2.53079e-29
1.37419e-38
9.42715e-46
-2.08748e-43
-2.80751e-43
-4.69987e-40
-2.04272e-39
8.52527e-34
1
1
-3.19563e-34
-4.90708e-45
-4.25725e-41
2.61543e-38
9.72016e-36
-3.44194e-36
-2.93477e-38
2.62633e-34
-4.5672e-40
1.31819e-28
-1.37725e-42
-2.60533e-37
-1.10055e-44
2.53911e-29
-5.20868e-36
1.24106e-17
9.73313e-28
7.76492e-41
-1.13579e-43
7.39823e-39
3.07972e-35
4.01986e-34
-1.66725e-41
9.21312e-22
-1.80141e-38
1.93087e-33
-2.20575e-40
1.26769e-39
4.38041e-43
-3.19982e-47
-1.34708e-43
4.23983e-30
5.47414e-34
2.86595e-32
-2.34857e-38
-4.27686e-47
-1.15042e-39
-2.52618e-46
-2.714e-47
-1.64622e-40
-1.73613e-46
1.93505e-33
5.22026e-41
2.28078e-39
0
7.65048e-37
5.17236e-39
4.1063e-37
-5.25294e-49
-2.35008e-45
-1.12351e-41
-6.56351e-44
1.06256e-32
5.1787e-39
-1.59987e-51
-1.66726e-49
-1.63776e-45
-3.5218e-44
-1.45112e-46
1.3227e-37
-1.99455e-37
-7.53148e-43
-3.65493e-42
5.70484e-46
5.70194e-46
-6.33954e-42
1.28686e-15
7.60797e-51
6.17679e-52
1.1576e-53
-3.2186e-49
-1.95447e-45
1
1
2.82363e-62
1
2.82363e-62
1
3.367e-39
-3.17094e-41
1.64811e-35
1.8385e-37
1.0436e-35
1.87942e-29
-4.23422e-43
6.73579e-43
5.65885e-29
3.06137e-29
1.58851e-45
4.5737e-47
4.33122e-38
1.41895e-49
3.43559e-49
4.26971e-44
5.32196e-43
2.04546e-55
5.88912e-57
2.76556e-53
3.91848e-51
9.45567e-49
9.446e-47
1.79912e-48
4.9567e-42
-5.4269e-48
5.31184e-08
-4.03618e-43
-1.00934e-38
-1.09481e-40
-7.02695e-46
5.52464e-49
1
0.525589
1
1.13992e-54
1.7639e-46
5.89165e-08
2.53169e-19
1.93981e-46
2.60135e-47
0.994178
3.53586e-07
1
1
2.40043e-54
1
5.12092e-11
1
1
6.76693e-06
1
1.51593e-11
0.83274
1
2.4676e-19
2.73287e-19
1
1
1
1
1
1
1
1
1
0.975251
0.939177
0.950326
1
0.407209
4.47441e-11
0.984206
7.08192e-14
6.65236e-14
1
1
1
0.979896
3.15764e-07
0.0595396
1
0.995843
0.740567
1
1
1
1
1
1
0.998951
0.992681
1
0.114397
0.283729
3.64767e-08
1
0.950406
3.50812e-14
0.811155
0.367899
0.969992
0.000632898
0.41342
0.115916
2.49149e-12
0.937994
0.766524
0.100037
-8.82514e-05
0.984206
1.55999e-06
0.000707634
4.0119e-05
1.47974e-19
0.991032
2.6376e-05
0.887279
0.514137
0.640021
1.63897e-11
6.15418e-06
0.00214555
1
0.220736
1
5.03336e-07
2.40195e-06
0.635578
4.70614e-06
7.39032e-07
1
2.13439e-08
3.79859e-06
0.917352
1.16118e-10
0.936422
0.0602093
0.0590713
1
1.90432e-10
1
1
0.00190169
)
;

boundaryField
{
    patch0
    {
        type            zeroGradient;
    }
}


// ************************************************************************* //
