/*--------------------------------*- C++ -*----------------------------------*\
  =========                 |
  \\      /  F ield         | OpenFOAM: The Open Source CFD Toolbox
   \\    /   O peration     | Website:  https://openfoam.org
    \\  /    A nd           | Version:  8
     \\/     M anipulation  |
\*---------------------------------------------------------------------------*/
FoamFile
{
    version     2.0;
    format      ascii;
    class       surfaceScalarField;
    location    "0.3";
    object      alphaPhi0.water;
}
// * * * * * * * * * * * * * * * * * * * * * * * * * * * * * * * * * * * * * //

dimensions      [0 3 -1 0 0 0 0];

internalField   nonuniform List<scalar> 
2805
(
-1.35588e-08
-2.16077e-06
2.19982e-06
3.48038e-09
-1.73949e-08
-4.40514e-09
-1.46626e-09
5.32648e-09
8.00554e-10
-5.6223e-09
-3.79897e-09
9.41864e-09
-2.83308e-08
2.87256e-08
3.046e-08
-1.16414e-09
-6.62838e-07
1.08205e-06
-1.26925e-06
-5.61514e-07
-1.63055e-08
1.52911e-08
-6.04005e-06
4.82666e-06
-2.22274e-06
-3.58064e-06
0.000243699
-0.0003243
-3.83979e-05
-2.58093e-06
5.51962e-07
-2.68737e-07
1.96923e-07
4.70292e-08
-2.40923e-07
-4.3066e-08
1.92194e-06
0.000106723
-3.86056e-06
1.49986e-06
-0.000123048
0.0001332
-1.08549e-06
-7.96075e-07
0.00140249
0.00131644
-0.00272209
4.87398e-06
-2.70925e-06
-2.82035e-06
1.14839e-08
2.29616e-11
-1.15846e-08
-3.80269e-06
2.76127e-06
4.74016e-06
2.19705e-08
-0.000282108
-0.000673601
0.000861171
0.00054998
-0.000912887
5.3626e-10
-8.68709e-10
4.60683e-09
1.24409e-11
7.01083e-07
-6.77571e-07
-8.35398e-06
2.90502e-11
4.64457e-05
-3.61481e-08
4.65568e-08
0
3.36242e-05
-1.32253e-05
3.23066e-05
-3.01434e-05
1.14751e-06
-1.64996e-06
-8.45811e-09
1.52532e-08
2.0801e-11
7.91206e-15
0.000253201
-0.000226213
-1.59713e-08
6.69478e-08
0.000412736
-6.85152e-07
9.92015e-07
0.000935496
-0.000224159
0.00168791
-0.000238723
0.000211701
-2.59473e-14
-1.15849e-08
0
6.5799e-10
-2.43558e-10
4.23326e-05
0.000171037
-0.00023292
0.000125636
-2.04253e-05
-1.58448e-05
7.23453e-10
6.07479e-10
-7.68664e-10
0.00141938
-0.0024694
0.00105001
-0.00232488
0.00119309
0.00113179
7.14668e-15
-1.86459e-15
-1.38508e-13
0.00120965
-2.69204e-06
-1.3964e-08
-2.88845e-16
3.18931e-15
0.000264894
-0.000407388
9.03317e-05
-2.09658e-08
7.87544e-05
5.62852e-07
-1.34668e-09
5.66003e-07
-1.75895e-08
1.31903e-09
8.42588e-09
1.26142e-13
-7.23908e-13
-1.24697e-06
-6.89373e-08
0
-4.08073e-13
-0.00102555
0.000626953
0.000401046
4.45746e-18
-5.83094e-16
-1.70622e-09
2.77431e-09
-2.26921e-06
1.73219e-06
2.65815e-08
0
8.23986e-12
4.93021e-05
-1.2593e-12
1.19228e-12
-0.000581511
0.000425505
-2.34797e-09
-2.52732e-06
4.17897e-08
-0.000221645
6.16697e-12
-2.87304e-11
-5.6624e-12
-1.27173e-11
-1.62917e-07
-1.30103e-07
2.54769e-07
1.9243e-09
-1.76703e-09
-1.02628e-11
9.75963e-12
-7.43353e-10
1.94181e-11
-3.34595e-12
1.99603e-11
-2.51977e-11
1.05716e-11
0.000395969
-0.000187608
-0.000146349
0.00027513
0.000148247
0.00169512
-0.000382868
-1.05068e-05
-4.4408e-15
2.81369e-11
-1.13737e-09
-2.87386e-07
3.56906e-07
-0.000905503
0.000243752
-0.000828864
-3.98622e-06
-1.09527e-05
1.66172e-05
2.60601e-05
0.00037636
0.000129768
-0.000144535
-2.64498e-05
-0.00101972
0.00125954
-5.55305e-20
4.52373e-18
-2.95072e-10
2.22678e-09
2.12492e-09
-2.02588e-09
-5.86076e-08
2.41517e-08
0
1.83822e-08
-1.54545e-09
1.88981e-08
-1.58103e-08
0.000670771
-2.59086e-07
-3.33384e-08
3.24192e-07
-2.86455e-06
1.61045e-06
0.000128432
-1.3178e-12
4.53659e-13
1.06597e-12
4.7602e-07
-1.25018e-05
1.24093e-05
-1.6386e-06
3.03237e-06
4.01364e-10
-1.39761e-10
0.000160882
-6.11094e-10
3.51838e-10
0.00017315
1.24459e-05
-1.75617e-08
3.99629e-05
-0.000117792
0.000307718
-4.80772e-10
-2.16671e-10
0.000789378
-0.00117645
3.36552e-09
5.28345e-09
-5.21324e-08
-1.94177e-15
8.15872e-14
-4.29742e-14
-1.18827e-09
0.00011293
-0.000146124
-0.00310424
0.00295268
0.000151553
-0.00152901
-2.86803e-06
1.47558e-06
6.04908e-08
1.518e-06
4.45694e-06
-6.48948e-06
6.9009e-07
-1.04615e-06
2.03958e-12
-7.75766e-14
0.000285666
-0.000929351
0.00251257
-0.00158322
-3.62122e-10
-1.78666e-10
3.4809e-07
-5.97583e-08
-2.07062e-08
9.40429e-08
-3.84965e-10
0.00187574
0.000218431
-0.000126946
7.33844e-08
-1.00465e-08
-3.84967e-06
1.22519e-07
3.51742e-10
2.10393e-09
-1.41093e-05
0.000646082
-0.000273318
-0.00063501
0.000607969
-5.72596e-09
8.68191e-09
-0.00155138
0.000622028
-2.68484e-07
0.000194966
3.03689e-11
9.76878e-11
2.24545e-16
-1.44614e-14
-2.87713e-06
0.000294418
-0.00310424
9.51843e-05
-0.000361655
1.2707e-08
3.48193e-07
2.31369e-08
4.68986e-06
-2.68372e-07
0.00264166
0.000311022
-1.65094e-08
-2.21047e-09
1.96412e-09
-0.00031709
1.56485e-05
0.000308188
-2.94922e-05
-5.52521e-09
2.03437e-07
2.16232e-08
-0.00317003
6.579e-05
-0.000394437
0.000244699
0.000149784
0.000145833
0.000106363
-0.000125543
0.000873676
0.00176799
-1.11122e-10
-1.00708e-09
0.000110814
6.65677e-07
3.15688e-05
-3.29712e-08
5.77446e-08
-1.1101e-12
-2.38851e-13
1.83033e-07
-1.24145e-08
0.00080631
-9.85017e-08
-0.000901118
0.000479244
2.19952e-09
-6.85076e-09
3.05238e-13
-5.75614e-15
5.60697e-09
2.34452e-08
2.80284e-05
-3.00526e-05
1.1691e-07
-6.04926e-12
5.61013e-09
-8.3526e-12
-2.08108e-12
-5.94631e-12
6.88943e-05
2.76796e-06
-0.000913174
-0.00155622
1.2769e-08
-2.03411e-05
8.10736e-05
5.31033e-06
-2.40543e-06
4.67698e-06
-5.70991e-08
-2.28999e-10
-5.44766e-09
1.77294e-10
2.1416e-07
-5.61801e-07
1.06102e-06
-7.55181e-11
-2.04027e-10
7.22634e-08
0.000248876
-0.000142856
-0.00317003
-1.51816e-07
8.32909e-06
-1.09555e-05
0.000439653
0.000322914
0.000478563
-2.76386e-06
0.00152571
-0.00123355
-0.000712232
0.000296342
-0.000142304
9.0792e-07
-1.23628e-07
2.57298e-05
4.20626e-08
4.27818e-08
0.00128726
-0.00129245
-0.000369863
-1.82786e-08
-0.00323084
6.08128e-05
0.000154551
-5.10828e-07
7.44362e-08
6.35174e-07
0.000176525
8.71551e-05
1.77419e-06
5.855e-12
1.10087e-11
-1.49922e-11
3.53958e-08
8.13887e-07
-4.70299e-14
-1.97693e-14
-3.09535e-07
-4.74669e-10
0.000181303
-3.87826e-07
-3.636e-07
1.23846e-06
1.77178e-06
2.82052e-06
-7.21654e-08
7.17097e-08
2.66144e-13
-3.5688e-11
5.16765e-11
0.000285426
-0.000124096
0.000411778
0.0010815
-0.000390637
-9.88832e-08
8.45141e-08
-6.90008e-08
-6.13301e-07
0.000304035
1.13577e-05
-1.42205e-05
1.6048e-05
9.48346e-08
-2.25858e-08
2.63958e-07
3.97755e-07
0.000248557
-3.44097e-05
-0.00323084
3.86832e-13
-6.32778e-12
0.000764973
-0.000786587
8.59441e-08
2.15612e-06
0.000188441
0.00106207
0.000294077
-0.000310929
0.000886165
6.0844e-08
-1.66617e-07
1.9911e-09
-1.1821e-12
-6.7921e-13
5.76222e-06
-0.00215453
-0.00107631
0.000159629
0.000105828
3.72246e-05
-1.0208e-10
-7.0669e-11
-6.59694e-07
3.85196e-08
0.000113541
8.37498e-05
-0.000291628
0.00110519
-0.000794719
-3.10857e-06
2.25176e-07
-3.82057e-07
0.000145937
1.27141e-07
8.58889e-09
7.32694e-12
3.02344e-05
2.63833e-07
1.73032e-11
-4.08325e-12
2.99679e-05
-0.000271284
3.4463e-14
-3.14861e-13
2.59303e-05
0.000885047
0.000737984
-0.000374744
-0.000396648
-0.000198289
-0.000807037
0.00109376
-0.000267506
3.94652e-09
4.16974e-08
-5.12933e-14
-2.50562e-11
9.46571e-08
5.28564e-06
3.5868e-06
3.73872e-05
0.00124379
-0.000617644
-0.00215453
-4.91727e-06
0.000159595
-6.88497e-05
0.000136345
-0.000518488
-7.20503e-08
-9.38236e-11
-0.00251257
0.000358037
1.13807e-07
1.0752e-07
0.000515757
0.000207783
-3.25287e-06
-3.13408e-11
-6.85096e-07
3.55917e-05
-1.64543e-05
-2.57248e-08
3.15591e-09
-6.59009e-05
-0.00025227
0.000496986
-3.4107e-08
-2.39413e-07
0.00162137
-0.00147285
-1.31193e-14
-1.49818e-09
3.60469e-06
9.56167e-08
-3.15745e-09
2.73933e-13
1.15005e-12
7.73769e-08
-2.56547e-07
-0.000776384
0.000953635
-0.000235538
4.01641e-05
-1.11504e-05
3.8627e-09
5.09894e-08
0.00031724
-4.0276e-10
-0.000409589
-1.36715e-18
2.10625e-16
5.10773e-05
5.64108e-05
0
2.31662e-09
0
-2.78593e-10
1.53917e-06
-3.45263e-06
1.07477e-07
6.323e-05
1.2712e-05
6.94229e-12
3.65457e-05
0.000570678
3.63736e-06
0.000225304
-0.000477524
-0.000622906
-0.000336037
5.92752e-12
-9.02717e-13
1.74575e-12
0.00060141
0.000335614
-2.03616e-10
-6.76685e-07
5.83056e-07
0.000322009
-3.43694e-08
3.37842e-08
0
-2.73867e-11
-8.682e-07
8.23276e-14
-7.61228e-14
1.09748e-05
3.48869e-06
2.14245e-09
7.65626e-05
-4.09296e-07
5.74843e-05
-5.92158e-06
4.6774e-07
-3.18716e-12
3.46841e-06
-5.68142e-09
3.10919e-08
0.000298032
0.00128678
1.99571e-09
-5.04767e-08
-3.33375e-08
4.85148e-08
4.37453e-08
-2.95459e-08
5.5027e-21
-1.37414e-18
-2.91851e-05
0.000164671
-0.000310581
0.000460457
3.25379e-09
-1.21175e-10
0.00146161
2.18654e-13
-1.13508e-12
-0.00100726
0.00212327
-0.00111601
3.95121e-08
6.4024e-08
0.000334454
-0.00018952
-5.63624e-20
2.62295e-22
6.01711e-06
-1.97759e-05
-2.07771e-09
1.0866e-10
1.03379e-10
4.16341e-08
-1.27172e-09
7.70659e-07
5.2111e-07
4.10262e-10
4.19011e-05
-5.39645e-06
6.76866e-05
4.69707e-05
7.2298e-06
3.94827e-09
-1.00565e-10
1.41821e-05
-0.000109102
-1.79525e-15
1.92804e-13
-1.03337e-06
8.2229e-07
9.15299e-09
-2.87788e-06
-1.50438e-10
-5.18551e-09
-6.21818e-08
3.75108e-07
3.41921e-08
1.71425e-09
2.37513e-12
-8.86006e-15
0.000334116
6.7069e-05
0.000876914
1.07478e-10
4.0545e-09
-3.76066e-12
2.53124e-09
1.17559e-05
1.28728e-07
8.59923e-13
0
0.000191337
3.55634e-08
-2.50395e-09
7.67646e-06
-3.42934e-07
-3.96543e-05
5.49131e-06
6.30809e-10
-1.2754e-06
-1.9012e-09
-1.49812e-10
-0.00078536
-0.000766019
1.87858e-14
-2.28609e-14
0.000318389
-3.73239e-05
-5.27649e-07
0.000873676
1.63497e-09
2.0533e-11
2.23115e-11
-1.14149e-10
0
1.10743e-09
1.48384e-05
1.86414e-06
1.82838e-06
1.35488e-15
1.00047e-12
3.46629e-08
-5.51288e-11
4.56486e-07
0.000115653
-1.42913e-05
8.31057e-14
-5.67004e-13
9.21606e-13
-1.07033e-12
1.27204e-10
-6.50907e-12
2.17481e-15
8.41698e-14
-8.85741e-14
1.52702e-10
3.15831e-12
4.40595e-07
4.14098e-05
1.16683e-13
-6.36498e-05
-2.49302e-07
9.11936e-07
1.02027e-10
-3.05586e-12
-1.46734e-10
-1.24755e-10
-1.26722e-05
1.20282e-05
0
-1.0658e-10
0
1.39063e-08
1.04419e-10
-4.59399e-15
3.14578e-09
1.96323e-14
-3.37043e-14
7.94676e-15
2.32111e-06
3.66706e-07
2.29546e-12
1.15919e-05
-1.35676e-06
-1.94846e-05
1.01952e-07
7.68521e-08
0.000117204
-9.54013e-07
2.07249e-06
2.60722e-05
0.000379774
0.000117212
6.60991e-10
-9.81971e-10
1.82161e-06
-1.19306e-06
-3.96559e-14
8.78987e-05
2.79406e-09
-8.66212e-11
1.65374e-10
0
4.59021e-05
-8.8566e-08
-2.04757e-06
1.11641e-06
9.10704e-05
1.10348e-10
-2.82746e-12
-1.67367e-10
8.81895e-12
1.91043e-14
-1.6353e-15
-3.59645e-10
1.61856e-10
4.50701e-12
-6.05186e-14
1.65025e-09
-1.68563e-10
1.67035e-06
-1.89998e-07
-5.6721e-16
1.689e-06
0.000302724
1.02873e-10
1.15681e-09
-9.31983e-11
7.99945e-05
4.0157e-05
1.97071e-07
-9.17018e-11
-1.81931e-06
5.03323e-06
7.92162e-14
-6.60551e-14
7.51736e-08
-6.00883e-10
1.65101e-12
4.95155e-07
-4.92009e-08
-1.88048e-16
-0.00076488
0.000705197
1.2805e-08
1.79004e-08
3.83148e-10
4.12213e-11
-1.63054e-10
4.82423e-12
-1.06346e-07
2.41515e-06
9.25788e-12
2.03608e-11
0
9.94756e-09
-2.94646e-08
2.52398e-08
3.61958e-16
-2.21333e-15
0
2.239e-10
-2.596e-10
1.87429e-07
3.97212e-09
1.14552e-15
-9.62104e-10
3.19851e-12
-5.81322e-14
1.79963e-12
-1.79099e-12
1.12886e-12
9.8072e-11
-4.38711e-12
3.97119e-07
-0.000291789
0.00051711
6.94861e-14
-1.71481e-13
0.000186554
2.60624e-10
8.94111e-10
3.7913e-05
1.2487e-15
1.88863e-14
-8.3685e-12
1.77794e-12
3.63113e-07
1.26313e-07
7.72442e-13
-3.4824e-12
2.84189e-12
-6.66622e-14
4.29383e-15
-6.99065e-15
7.44447e-14
3.24595e-12
2.90103e-05
1.01673e-10
-2.79272e-12
2.42995e-12
0
0.000218183
7.73929e-08
-1.7856e-12
1.00409e-15
-4.30842e-15
-7.07182e-15
6.16791e-14
-9.13632e-14
4.73564e-14
7.33283e-05
0.000404779
4.59299e-11
-4.92447e-11
-1.01951e-12
1.05038e-12
1.38575e-06
0.000108255
-2.3751e-05
-5.75824e-16
5.49772e-18
-3.60985e-08
2.55568e-07
0
-7.34572e-15
2.1487e-15
2.37293e-06
-8.02847e-07
-2.22251e-12
2.13069e-11
1.14611e-05
4.96019e-07
5.0251e-09
0
1.49344e-08
2.0943e-12
-3.05273e-11
0.000294415
-0.000586174
-1.58452e-12
1.92393e-13
-4.58722e-15
1.71155e-12
-4.95379e-14
0
4.19317e-10
-4.68242e-08
-5.8537e-09
-0.000228332
0.0008556
-1.80469e-11
1.08367e-11
1.36484e-13
-8.95983e-08
6.07429e-09
6.14501e-12
-4.8535e-13
-6.13573e-14
8.61432e-15
-2.18433e-14
-1.7688e-08
5.22997e-08
-7.42581e-15
-5.60123e-16
3.08309e-14
-4.37677e-13
0.000208403
0.000308708
-0.000201694
3.29045e-11
-2.1771e-17
-1.51751e-06
3.333e-13
2.2204e-06
4.86092e-10
-1.623e-16
1.07158e-09
2.61888e-08
0
1.99382e-14
3.60779e-11
2.78921e-08
3.0744e-12
-2.02435e-13
7.85112e-12
-7.67525e-12
2.38392e-12
-6.18648e-14
-6.62855e-15
2.74657e-16
7.87228e-08
6.95795e-14
-8.42195e-16
3.29823e-14
3.73778e-14
2.811e-11
-3.46417e-11
-5.67013e-12
2.0535e-12
1.32951e-07
7.33184e-14
-3.58813e-15
5.97637e-18
-1.33061e-16
-5.87417e-14
5.13285e-15
-4.30107e-24
5.58078e-21
9.83821e-14
-4.13865e-14
-0.000472318
2.54061e-08
1.1494e-07
1.8065e-16
5.93175e-05
0.0008268
-7.9068e-21
-1.31037e-18
1.53706e-15
3.84943e-14
-1.31487e-10
1.37366e-10
2.49489e-13
2.66928e-18
-3.21142e-19
-6.56137e-20
-3.27885e-25
-1.54764e-16
8.62049e-05
2.76451e-05
-0.000871108
0.000642863
4.80358e-14
-8.04585e-14
-3.43459e-07
6.92091e-06
1.9002e-20
-4.71619e-16
0
8.1712e-10
-4.32305e-24
1.87362e-26
3.83802e-09
9.27335e-15
-5.2845e-15
-2.46381e-10
-7.88553e-12
0
6.04381e-12
6.34945e-13
5.78537e-05
1.0299e-08
2.3481e-06
6.61729e-20
-2.42197e-23
0.000595914
0.000259704
4.97406e-14
-1.54092e-15
5.51858e-15
-5.60399e-07
2.85689e-11
-3.90049e-11
-1.05476e-05
9.70987e-05
-5.56931e-10
-6.16901e-16
5.95383e-17
4.01548e-14
3.44094e-06
-2.21602e-14
1.38591e-14
-1.9899e-12
7.09627e-14
0
2.44444e-10
-1.63677e-11
-1.36943e-21
4.35561e-15
1.4496e-22
4.65075e-09
0.000588177
2.45034e-11
6.47122e-11
8.43709e-16
1.29424e-13
2.45563e-13
-2.44617e-14
2.19476e-13
-3.3291e-13
1.93659e-08
1.00839e-09
1.68401e-15
-1.85767e-14
-7.48581e-15
1.07974e-15
0
-2.8489e-19
2.07947e-17
5.38995e-12
2.0874e-18
-2.66296e-17
1.02709e-14
0.000102213
-9.40634e-16
6.6689e-14
-4.91374e-15
-4.64582e-19
1.09775e-20
-9.41785e-16
1.14395e-08
-2.08545e-16
-1.89052e-14
-1.33835e-16
6.11078e-19
-4.00475e-11
3.62205e-14
-8.72685e-16
1.1452e-15
-0.000164777
7.07588e-10
3.07374e-10
-9.98297e-15
1.48072e-16
-6.29143e-16
1.21528e-14
3.3202e-13
-3.83771e-13
7.81593e-16
-2.27013e-15
1.91165e-07
-1.02113e-12
-1.893e-17
1.07405e-15
1.99453e-06
-6.9823e-14
3.88096e-15
-1.31617e-18
3.38951e-21
-1.33863e-14
6.7063e-15
-9.82239e-16
1.37194e-16
-1.69779e-18
-2.11214e-13
1.29484e-13
2.63829e-13
-3.50961e-14
2.89691e-11
7.94798e-05
3.74443e-14
-1.002e-15
0.000764774
-0.000256197
-0.000508577
1.59381e-15
-3.91842e-18
-6.80999e-17
0.000184688
1.80448e-05
-9.4451e-07
-1.66728e-10
3.25468e-10
-3.44222e-20
-1.65496e-16
1.1655e-17
-1.53995e-18
4.52577e-14
-3.5589e-14
6.10789e-15
3.70756e-13
-7.05004e-13
4.24826e-15
-1.92894e-15
-1.37541e-21
4.4413e-24
0
4.88166e-11
8.4954e-07
-7.92965e-21
1.08848e-23
2.66036e-12
5.84418e-14
-3.9387e-15
1.04496e-10
3.24065e-17
1.88803e-15
-3.07256e-15
1.34878e-18
-7.2658e-19
6.77266e-15
0.000396541
0.000368233
0
5.3856e-10
5.86206e-15
-6.57675e-16
1.45983e-21
-4.66693e-22
-8.13425e-19
0.000599736
-0.00045069
-3.26879e-13
-4.50171e-14
2.43347e-14
-3.39385e-18
-4.35463e-15
1.0045e-15
-4.33162e-16
2.87231e-06
-0.000311645
-2.42829e-23
2.88738e-26
1.50624e-08
-1.09774e-08
8.73587e-16
-3.50419e-17
1.64256e-16
1.54716e-18
-0.000807041
0.000247614
0.000559426
3.67527e-15
9.5063e-15
1.64234e-11
6.68581e-16
4.12981e-13
5.32493e-14
9.44501e-15
-9.5973e-25
-4.81479e-21
1.06666e-15
-8.44377e-17
7.59069e-17
-7.31987e-23
5.74722e-23
3.993e-23
-6.05998e-06
-0.000460465
0.000577678
6.53839e-15
-4.17637e-15
-1.01198e-20
7.40493e-17
8.74474e-18
6.83022e-12
5.45215e-13
-2.83687e-18
1.08209e-16
2.00943e-06
0.000211123
-0.000808978
0.000597855
5.32601e-05
-1.97374e-08
9.63791e-09
-1.56562e-23
6.68817e-05
-0.000852242
1.01224e-15
2.46673e-07
-1.26999e-07
1.4986e-17
2.6171e-20
-3.13574e-19
1.44651e-15
-8.79319e-18
2.04775e-13
-1.55263e-18
1.01705e-20
5.31522e-11
4.48046e-12
8.25509e-15
-4.00172e-15
-2.3445e-16
1.73606e-17
0
1.03801e-12
-1.10143e-14
5.89061e-16
1.80414e-11
-0.00026249
0.000571198
1.63199e-15
-1.66515e-16
0
3.65186e-18
-3.64359e-20
4.72856e-16
2.94268e-11
-5.6547e-23
2.96214e-15
-2.07406e-27
5.53002e-15
6.47588e-18
1.51213e-07
8.40686e-05
2.21108e-07
4.37145e-08
1.07637e-08
-4.38484e-09
-1.67493e-17
8.33725e-14
3.36932e-13
1.73975e-18
-3.91106e-21
0.000554122
-5.54981e-21
7.52497e-24
-4.82838e-22
3.64837e-20
9.22458e-17
1.08954e-14
-1.48847e-14
9.3902e-18
7.3909e-20
-2.62256e-15
-4.4472e-18
2.95466e-15
4.1957e-14
2.0607e-21
-3.66165e-20
1.51567e-08
1.11445e-12
2.12567e-12
-0.000704987
0.000756019
4.19469e-18
-7.58854e-18
8.68745e-19
-0.000166107
-6.83608e-17
9.69168e-17
-1.17667e-17
6.63401e-16
3.64543e-09
-5.1542e-09
3.54681e-17
-6.7626e-20
0.000291632
1.42315e-24
-1.26032e-23
2.36796e-19
-2.27202e-18
-1.01874e-20
5.68224e-23
-1.10048e-15
2.71646e-15
-3.30003e-18
1.76587e-19
6.93676e-14
-2.99443e-14
3.56419e-14
-9.63826e-25
2.78531e-27
1.71354e-05
-8.70485e-19
8.24484e-20
-2.32965e-25
-1.86621e-17
6.81445e-16
2.24534e-19
9.91957e-16
3.35868e-15
-6.5973e-16
1.65418e-18
-2.79977e-23
-5.03067e-16
3.10588e-17
1.7698e-17
-1.57103e-17
1.05284e-17
-2.29058e-17
-1.51088e-12
9.90027e-13
5.35379e-14
-7.89647e-15
1.76626e-13
0
-1.14431e-15
7.7415e-18
8.87888e-18
-1.4793e-19
0.00183098
-0.00183244
-5.06621e-06
2.3508e-23
-1.75303e-26
1.15215e-14
1.4604e-13
0
1.20756e-12
0.000760721
1.3991e-24
-2.35439e-25
1.25884e-14
5.58013e-15
-1.12584e-15
2.79252e-16
-1.9957e-23
1.15176e-06
1.92501e-17
-1.04977e-18
-5.68597e-23
2.70703e-25
-1.42689e-20
-3.45257e-18
6.08915e-16
-5.5224e-17
-5.26839e-28
6.36668e-17
-2.96679e-17
-1.92725e-20
4.92018e-22
2.04452e-11
-1.3096e-11
1.97646e-16
-1.81299e-21
2.96398e-17
1.04281e-08
2.69532e-07
-2.0785e-27
2.34681e-29
1.9409e-17
-4.13287e-18
-4.52554e-29
3.32759e-14
-1.18421e-25
2.79565e-23
8.33517e-20
1.75601e-21
6.36438e-30
-6.41549e-30
9.00221e-32
9.69984e-17
-2.86259e-17
-1.34382e-08
2.21996e-19
1.11222e-26
0.000311645
-0.00121715
1.34979e-15
-0.000839227
0.000674583
1.87528e-19
4.80971e-17
1.3494e-09
1.29343e-18
-4.9342e-17
1.34775e-14
4.51221e-15
8.08238e-19
-3.41947e-06
1.23156e-19
6.13224e-18
1.16484e-16
-1.13845e-16
1.41234e-17
-5.45242e-20
0.000647133
-6.56375e-05
1.55887e-21
-1.08058e-23
3.64716e-20
-1.70881e-23
3.15083e-22
6.91124e-20
-2.58994e-22
-6.67891e-17
4.32825e-18
-9.77318e-31
-1.92067e-17
2.53322e-18
-2.81213e-23
1.20365e-25
-6.96165e-09
1.43883e-18
-4.01773e-23
4.53236e-25
2.65873e-14
1.28833e-14
5.22694e-16
-4.39864e-21
2.90524e-22
-2.4018e-25
7.21111e-27
-6.41207e-15
6.84341e-15
-3.28724e-23
3.84989e-14
-0.000139876
1.04159e-21
1.35845e-19
-6.96906e-20
-4.75409e-32
1.11711e-18
-1.49316e-19
-3.68338e-28
4.87296e-14
2.36552e-18
7.41086e-15
-2.64914e-15
-4.86886e-09
-9.90734e-20
6.31483e-16
-1.03874e-16
-9.9397e-05
0.000721205
-0.000621808
2.23507e-19
-2.55949e-22
-1.10828e-26
1.22799e-18
4.99356e-15
7.86054e-16
3.34504e-18
-1.84896e-19
1.99094e-15
4.10291e-15
-2.49425e-25
5.30776e-27
5.21559e-18
-1.08148e-18
1.47025e-08
-1.28419e-18
4.65217e-18
1.85966e-24
-3.99352e-23
5.09743e-16
1.21124e-20
1.6957e-18
-1.70997e-18
-1.9796e-16
1.94741e-16
2.84916e-20
2.41515e-16
3.94551e-26
-3.77113e-26
7.38974e-18
2.48188e-17
1.91187e-19
-1.18953e-25
5.338e-28
-3.95917e-18
2.53448e-19
-5.29777e-28
1.99952e-30
3.55649e-16
2.79614e-22
-3.26618e-21
2.46414e-17
-6.12066e-18
-2.86947e-33
-3.55583e-29
-4.5787e-18
5.29303e-18
0.00023038
0.000340818
1.09157e-19
-7.52607e-20
1.48495e-20
-5.14919e-20
6.57611e-07
-8.47598e-07
-4.56585e-29
3.99754e-31
1.95704e-19
-5.57108e-20
3.63505e-23
1.14547e-16
3.83519e-18
-4.43498e-15
2.0555e-15
-4.74104e-31
4.29456e-18
-6.6685e-18
1.1248e-19
-7.66273e-20
-4.06832e-13
7.74844e-16
-1.53814e-21
-8.30309e-05
2.84678e-19
-2.37657e-20
1.04266e-15
2.5604e-16
6.25172e-18
-1.79989e-19
4.94867e-06
-5.35264e-20
1.0237e-16
-9.93668e-31
1.43987e-32
1.92194e-19
-8.12579e-20
6.32091e-16
2.03131e-15
1.83734e-19
-9.13284e-21
1.07331e-18
0.000786161
-0.000188306
-0.000784455
0.000618349
-8.323e-27
-1.15391e-08
5.26884e-21
5.21058e-21
2.5498e-19
-2.7666e-19
1.67046e-24
-5.60534e-17
6.56342e-28
-1.07087e-28
2.72969e-18
9.35616e-19
4.13412e-20
3.59559e-29
1.49378e-16
-3.7348e-28
5.05261e-30
-2.4877e-31
6.79504e-21
1.96669e-22
-1.00479e-19
1.17784e-20
-5.35395e-06
3.1511e-22
-1.33517e-25
0.000481512
0.000304649
1.20941e-18
-4.09376e-19
-8.55175e-32
-1.38016e-18
8.31951e-20
1.38363e-18
-2.41288e-19
4.95611e-24
1.0463e-21
-4.18771e-24
4.15292e-20
5.30245e-19
1.87375e-21
1.63901e-17
6.50292e-18
1.52416e-23
7.23807e-27
-1.20258e-23
1.21998e-24
1.42522e-25
0.000917766
2.45881e-18
7.17054e-17
-7.74218e-17
6.25542e-20
-1.13465e-20
3.44908e-21
9.61195e-21
-1.34089e-21
-2.70996e-10
0.000449619
0.000138558
-4.38144e-34
6.03369e-22
3.31055e-20
-4.7818e-32
2.66272e-34
-4.67599e-35
5.16079e-21
-2.52318e-06
0.000539246
4.35042e-19
-2.91638e-33
4.9006e-35
-1.61311e-21
4.46262e-07
6.94337e-22
2.63562e-21
-6.38644e-17
3.08107e-17
1.82679e-19
-1.15741e-19
-1.44889e-16
1.39933e-17
4.03563e-17
1.03694e-21
3.06867e-20
-3.63516e-23
3.39779e-24
-3.59628e-29
3.88105e-31
4.225e-19
-4.54824e-21
1.88392e-11
-5.5727e-07
5.15517e-17
6.32137e-28
6.29604e-23
-2.66878e-26
1.05151e-27
8.15385e-18
4.55886e-19
-9.20903e-37
2.00715e-25
-2.88164e-24
-0.000109857
-7.56729e-33
1.54017e-17
-1.64001e-21
1.43193e-22
2.95008e-18
3.62702e-18
6.40921e-20
-4.78135e-31
9.35112e-33
-5.78539e-20
2.80939e-21
-2.64159e-35
9.23093e-22
1.33194e-23
-6.4024e-23
2.44123e-19
1.65421e-21
-4.56384e-22
7.88831e-26
-1.64757e-35
-3.84975e-21
1.9167e-21
1.22608e-22
-1.09417e-22
1.73108e-19
7.24646e-08
-7.15299e-09
1.27829e-20
-2.06573e-21
2.32846e-22
-1.24248e-22
-0.000789485
0.000512606
4.04148e-36
-4.14921e-36
1.06371e-37
-1.16713e-28
2.90341e-30
6.54451e-17
-5.67817e-17
5.66492e-21
-3.19542e-22
-3.05568e-20
5.43734e-22
3.17902e-22
-3.72721e-22
5.40596e-21
-5.68358e-21
7.75563e-09
-2.43016e-09
-6.24831e-08
4.18709e-08
1.5779e-20
3.66874e-21
1.87395e-22
-2.07471e-23
2.58883e-23
-8.88626e-32
2.67147e-33
8.50081e-28
1.22926e-21
-6.11156e-22
1.22354e-33
-2.50501e-31
-2.16514e-08
1.63827e-08
-7.24216e-18
1.23373e-18
-3.41678e-22
1.11778e-22
2.78919e-22
-4.43913e-34
6.7338e-36
9.90734e-19
1.10563e-19
1.01278e-19
-3.32356e-20
4.67633e-19
-1.96978e-35
3.37729e-20
-1.03766e-21
-3.8255e-23
7.52953e-33
2.10995e-22
1.39678e-25
1.21164e-28
1.15896e-25
-4.95477e-20
1.29074e-18
3.80452e-20
-9.27662e-40
-1.47096e-21
2.97116e-22
1.63474e-27
4.35965e-24
-1.63857e-27
4.26834e-06
4.90971e-22
-7.91457e-23
1.32855e-24
-2.53397e-08
1.11606e-17
5.01186e-23
1.05411e-21
-5.49205e-23
-1.77837e-21
1.85507e-22
2.70422e-24
-1.67824e-30
5.70413e-20
1.92605e-25
1.33794e-19
-5.91691e-20
1.78003e-35
-5.95636e-38
4.02782e-24
1.12645e-24
2.00162e-36
-9.31154e-37
1.68674e-38
6.19766e-22
-2.07727e-23
1.86861e-12
-1.21617e-12
3.22123e-21
2.86239e-21
1.98046e-23
-0.000643746
0.000754631
0.000581677
-0.000113936
-0.000471819
4.21133e-24
9.23402e-20
-5.02052e-24
-1.16797e-20
1.28269e-22
-1.0636e-25
7.61869e-26
-5.53623e-27
2.01233e-35
5.71972e-23
-8.28346e-24
0.000287292
0.000251954
2.24953e-21
-2.31557e-22
-2.73097e-21
2.05964e-15
-1.43688e-15
8.81862e-23
-0.000128687
-6.02425e-05
9.78626e-05
-2.60237e-35
1.52987e-38
1.96143e-23
4.287e-17
-3.1672e-17
4.60027e-25
1.9449e-29
2.63959e-31
-3.223e-32
-2.17862e-37
1.49702e-38
3.07521e-21
8.52169e-23
-1.1443e-23
-0.000715422
0.000527116
1.52251e-13
1.22402e-22
2.71176e-24
-3.82443e-40
-3.29289e-22
8.86348e-24
-1.15959e-34
2.49558e-22
-1.95581e-23
8.84126e-29
-1.5099e-27
2.96662e-35
-2.12006e-35
2.22204e-23
7.34807e-25
-8.99376e-20
4.19016e-21
-9.77095e-20
1.24035e-20
1.3922e-15
-1.36102e-15
6.59621e-27
-4.30828e-26
1.10197e-20
-9.70722e-05
0.000673689
-0.000756704
-1.20645e-23
6.26734e-24
0.00075337
-0.000686488
1.74333e-20
6.89959e-26
-8.28423e-26
-9.51402e-40
2.81034e-41
2.51056e-25
-2.23293e-23
2.22829e-24
6.38465e-25
-1.20452e-29
4.38675e-31
9.48566e-24
-2.56043e-24
1.42354e-25
-9.71988e-26
1.12959e-22
1.26045e-21
0.000374565
-0.000473962
2.54881e-18
1.58893e-23
-1.81031e-23
1.90817e-25
-2.54813e-25
-3.94293e-27
-1.62036e-29
-2.01186e-35
5.3332e-37
-2.75554e-25
0.000976645
0.000679999
-2.33003e-24
3.02595e-25
5.29679e-26
1.66201e-27
7.01138e-31
0.000311645
3.67787e-21
-1.79743e-22
3.29972e-23
6.02855e-25
-4.01516e-25
0.000628111
-8.76737e-26
-4.57547e-40
-3.74287e-43
1.27142e-15
-7.72153e-16
1.45239e-29
1.27793e-24
9.92617e-25
6.26394e-23
1.17218e-27
-6.77003e-29
1.13497e-25
-3.51661e-23
2.76801e-25
5.59892e-27
-5.20773e-32
1.4511e-33
8.84815e-26
1.73419e-31
-7.53173e-28
2.97923e-22
-1.23516e-22
2.68704e-24
-3.79767e-25
5.94015e-38
2.42679e-40
1.23323e-41
-5.12494e-24
1.51861e-25
4.03666e-25
-1.74019e-26
1.20615e-23
-9.97237e-25
2.75075e-29
0.000577678
1.60113e-24
3.60242e-28
6.79537e-24
1.13006e-27
4.17938e-24
-2.26432e-25
0.000563833
1.92598e-25
-2.60583e-30
0.000694059
-0.000212547
0.00158322
-0.000829848
5.30658e-26
1.24987e-22
-4.13161e-24
2.37715e-27
0.000437862
1.56013e-26
5.90949e-43
-6.59673e-44
-5.98799e-44
3.25042e-39
-2.18946e-37
5.04036e-27
-4.81124e-34
1.07424e-30
-3.80582e-21
2.45837e-22
1.53493e-20
5.77122e-38
-6.27213e-39
-3.86669e-40
6.88473e-42
1.91115e-17
-1.31999e-17
-2.21959e-22
3.43185e-22
-3.12001e-27
9.89935e-23
7.12696e-37
-1.16988e-34
-1.20415e-43
6.90882e-20
-4.52396e-18
2.33365e-25
-3.5107e-26
3.31233e-26
-4.02496e-26
1.53708e-35
-1.58363e-40
3.05671e-25
4.5931e-16
-3.20875e-16
2.72586e-22
4.07321e-24
-2.87982e-25
3.68249e-27
3.98577e-25
-4.35292e-26
1.10836e-23
5.95558e-25
-3.09798e-25
7.65922e-29
7.06891e-27
0.000915906
-0.000541341
1.23436e-26
1.52159e-47
-2.68043e-26
1.36797e-26
-7.08177e-28
-2.11979e-23
1.06009e-25
1.75686e-26
1.4626e-29
4.6967e-24
4.37328e-26
5.7464e-25
0.000229418
-1.15447e-25
1.06023e-26
3.12378e-25
-1.09692e-26
6.17112e-18
6.81575e-28
1.26136e-34
-7.57236e-36
-6.36631e-27
6.62976e-28
1.85243e-10
2.71646e-15
7.14059e-27
1.01387e-29
-4.05773e-31
-1.39922e-10
-3.85211e-43
1.21849e-44
7.37675e-26
9.19724e-27
1.55869e-27
1.69875e-22
-7.45136e-23
1.72883e-28
1.10523e-26
-6.18012e-28
4.93951e-28
4.25436e-30
1.04347e-24
-6.96879e-26
3.84723e-28
1.24375e-32
-5.79149e-43
3.82356e-26
-9.74403e-27
-6.57381e-28
-4.4955e-40
3.31634e-27
-1.67524e-24
4.26384e-40
1.5767e-29
2.39854e-34
2.68235e-43
-9.32613e-26
5.50094e-27
-3.07502e-12
-0.000131037
-1.93607e-37
-5.01144e-28
7.45796e-28
4.51102e-26
-2.92191e-27
1.12691e-29
0.000716236
1.97645e-28
1.2422e-28
1.30717e-28
1.32522e-29
1.76686e-28
-1.74125e-29
5.04412e-28
-1.7712e-29
-7.61063e-28
2.42953e-29
-1.77237e-16
1.87492e-16
0.000574791
-1.51778e-39
-2.24584e-45
0.000302453
-0.000776415
1.02213e-30
-4.64654e-41
-3.81177e-23
2.02961e-24
-3.39569e-27
3.15347e-28
1.43509e-23
5.69588e-25
6.30587e-28
-9.79565e-29
-7.03543e-30
1.15258e-28
7.26621e-26
-3.8621e-27
-0.00075652
-1.88569e-29
-1.12754e-30
0.000750003
-0.00044755
2.49645e-25
-3.61235e-46
2.30559e-24
6.92592e-35
-2.18912e-33
2.37627e-46
-2.39417e-47
1.62045e-32
-3.53568e-31
1.00587e-26
-1.26889e-27
7.20121e-41
6.41487e-43
-0.000379874
-0.000648886
0.000436339
1.63178e-30
-3.02499e-29
-4.48287e-29
2.3195e-29
0.000829848
-0.00060043
1.10741e-30
-1.12561e-25
2.09355e-25
-0.000563833
0.000466761
1.29481e-28
-1.13966e-28
1.77659e-29
-1.01936e-30
6.26101e-28
-1.28828e-28
8.87505e-30
8.18223e-05
-0.000253088
0.000173035
1.14964e-27
-1.81247e-28
6.54923e-31
-2.78359e-05
-0.000567947
3.55738e-33
1.02261e-28
4.98476e-30
3.14322e-27
-1.68069e-29
-1.7793e-24
5.63533e-27
-1.91136e-43
5.54751e-44
2.46899e-29
-9.28833e-26
-5.99132e-29
4.74257e-29
3.2852e-27
-1.27762e-29
1.41428e-30
1.30931e-27
-1.12982e-28
0
1.33991e-10
-6.89729e-11
3.0151e-27
-1.55584e-28
-7.80531e-36
2.61439e-37
2.14426e-29
-4.14044e-29
-0.00012177
1.02965e-28
-2.41422e-29
-3.46325e-33
9.01423e-35
1.80768e-28
9.54408e-46
4.74248e-05
0.000208662
7.21878e-29
-8.21059e-32
2.28691e-31
-7.02239e-31
8.83231e-30
6.10002e-30
-7.73092e-30
1.08562e-28
2.56484e-31
-5.99692e-55
1.03047e-30
-1.66491e-31
2.76964e-30
2.51479e-33
-6.33698e-30
2.51145e-31
3.21227e-48
-1.59615e-49
-1.43366e-49
1.02116e-30
-1.37924e-34
1.2942e-18
-1.20283e-18
1.6997e-33
-1.2489e-30
5.26593e-32
-1.96471e-32
1.15845e-28
-6.08897e-30
-1.96735e-37
2.4889e-39
-4.00106e-27
1.39865e-29
-3.37282e-25
9.45002e-27
-4.53759e-40
8.6776e-42
2.46281e-29
-2.8345e-30
4.06888e-32
-1.46844e-16
4.74562e-31
1.00634e-31
-5.60632e-33
1.49272e-29
-9.87327e-32
3.27295e-30
-2.93087e-34
5.89013e-32
-9.75363e-26
2.15365e-28
5.05805e-27
-5.88782e-43
1.33893e-44
1.60089e-28
-6.01377e-30
8.78256e-31
2.83509e-31
1.96605e-31
-1.55677e-28
1.16173e-18
-3.48257e-27
-7.25942e-28
7.2095e-29
2.51183e-31
-9.91725e-34
0.000332443
-0.000712317
2.5028e-31
0.000636387
-0.000303945
-2.46877e-31
-1.44675e-53
3.52933e-32
2.76793e-30
2.3502e-33
-2.26533e-34
-8.35971e-26
3.59776e-26
0.00060043
-0.000391768
6.15514e-30
-2.30128e-31
1.69215e-31
-3.50777e-32
0.000188837
-5.84816e-42
-6.99649e-48
1.35676e-06
-1.35676e-06
6.22261e-30
-2.45495e-31
4.41827e-35
3.71358e-33
-0.000274455
7.89415e-34
-2.52683e-35
3.37649e-37
-3.72245e-46
1.15604e-47
2.88846e-30
-1.95423e-31
-7.67926e-45
4.64376e-46
2.50421e-31
-6.7908e-33
-1.6007e-28
3.31367e-31
3.35228e-34
6.90929e-33
8.77622e-28
5.2881e-48
-1.00989e-25
1.06037e-25
9.77e-32
3.55279e-31
8.46267e-33
-4.30654e-30
-2.59701e-26
7.89346e-26
-3.62904e-27
5.57886e-30
-0.000589596
0.000315141
-2.16371e-32
1.8624e-33
-0.000466761
0.000344991
1.98586e-31
-8.29796e-33
2.67497e-34
-1.07228e-31
7.18085e-33
3.53663e-33
1.32186e-33
-5.05765e-35
6.90525e-33
-1.06652e-34
-3.20084e-36
1.43876e-39
4.47557e-51
1.7738e-54
-4.9405e-29
5.27707e-12
5.38472e-36
-1.27836e-34
-3.26694e-29
5.67883e-29
-2.3473e-31
2.13234e-33
-1.83296e-35
0.000607453
-0.000355498
7.53756e-05
-3.49699e-27
8.28172e-29
3.54296e-32
-3.63094e-33
8.41552e-33
-2.62591e-34
1.96736e-33
-1.91116e-32
-4.72194e-33
0.000391768
-0.000202931
-5.30624e-31
4.83362e-31
-4.40696e-30
8.39685e-33
-5.29198e-36
2.65925e-34
-7.01985e-32
1.31222e-31
1.40159e-53
2.31746e-53
1.05453e-44
-6.14478e-46
-0.000153256
-1.06412e-33
2.79709e-35
2.04984e-34
1.94221e-27
1.08146e-34
-2.85014e-36
5.34984e-36
-5.92083e-38
-1.1304e-37
3.06171e-36
-3.43027e-32
3.61676e-35
6.87317e-36
2.43887e-31
-2.608e-34
-3.56812e-33