/*--------------------------------*- C++ -*----------------------------------*\
  =========                 |
  \\      /  F ield         | OpenFOAM: The Open Source CFD Toolbox
   \\    /   O peration     | Website:  https://openfoam.org
    \\  /    A nd           | Version:  8
     \\/     M anipulation  |
\*---------------------------------------------------------------------------*/
FoamFile
{
    version     2.0;
    format      ascii;
    class       volScalarField;
    location    "0.3";
    object      epsilon;
}
// * * * * * * * * * * * * * * * * * * * * * * * * * * * * * * * * * * * * * //

dimensions      [0 2 -3 0 0 0 0];

internalField   nonuniform List<scalar> 
1924
(
0.103826
0.109977
0.114786
0.114766
0.110118
0.111206
0.11085
0.103056
0.101993
0.116267
0.0934368
0.0922737
0.0572383
0.0873405
0.106368
0.106034
0.0593849
0.0877747
0.0944166
0.0886601
0.0384462
0.08077
0.0857822
0.0922791
0.081408
0.0762635
0.075043
0.114868
0.104253
0.106632
0.0808538
0.0793212
0.0949771
0.0699962
0.115702
0.0923123
0.0725205
0.109108
0.10056
0.0720832
0.0724266
0.0453485
0.0741589
0.0835908
0.107064
0.0856305
0.0992087
0.115447
0.0321465
0.0315023
0.0989599
0.0473196
0.0820866
0.0956367
0.0564562
0.116722
0.0934818
0.113388
0.112746
0.10138
0.0939067
0.104588
0.092876
0.0962218
0.0907929
0.116235
0.102904
0.0926131
0.0950797
0.0976978
0.0361883
0.104061
0.0957229
0.109563
0.109053
0.0656679
0.116082
0.111174
0.115118
0.0983668
0.111584
0.0795311
0.102584
0.0372682
0.098379
0.0959467
0.115735
0.103639
0.0304246
0.0341043
0.100299
0.0841312
0.0692342
0.0678279
0.0389036
0.079774
0.115466
0.108725
0.0987438
0.0564874
0.112424
0.0390914
0.0967309
0.0901285
0.0690841
0.113609
0.101393
0.0709145
0.102342
0.0711592
0.113968
0.0940403
0.112787
0.106788
0.115166
0.0317895
0.113861
0.106943
0.101063
0.115683
0.0855553
0.107541
0.0369827
0.0309664
0.104714
0.0753919
0.0666374
0.110296
0.0821879
0.166854
0.113481
0.108205
0.452855
0.106924
0.0451953
0.0744792
0.108848
0.102208
0.0945258
0.114686
0.116552
0.101846
0.687856
0.615173
0.11197
0.0804362
0.0715565
0.0439265
0.103271
0.102439
0.0958409
0.217802
0.0523117
0.10728
0.110653
0.0778493
0.106156
0.113374
0.110928
0.689934
0.108254
0.0646244
0.110312
0.113392
0.0926063
0.0752502
0.0800235
0.136027
0.115304
0.0824414
0.0968324
0.107413
0.112926
0.0942916
0.116657
0.0578672
0.106239
0.129424
0.0982357
0.10938
0.0690949
0.107023
0.113482
0.0805188
0.0312572
0.106813
0.0536664
0.0747787
0.114566
0.111179
0.0649629
0.103042
0.11035
0.107817
0.0845193
0.230035
0.0838746
0.0590004
0.0653802
0.0566279
0.299433
0.1117
0.0817408
0.100187
0.104744
0.0692917
0.107057
0.0475577
0.0458078
0.477166
0.11997
0.0922842
0.100102
0.0845009
0.0761972
0.113354
0.103202
0.0689372
0.102541
0.108748
0.0773535
0.101333
0.0820187
0.101555
0.093736
0.0827967
0.106545
0.113242
0.0892356
0.0579205
0.310428
0.100477
0.0652198
0.243089
0.0872537
0.303584
0.102142
0.10196
0.0898895
0.242993
0.106178
0.0639293
0.101216
0.0489219
0.510028
0.0414831
0.0922072
0.115953
0.113114
0.113027
0.108617
0.148273
0.0890152
0.0917188
0.1142
0.104462
0.0789475
0.0649302
0.0778867
0.096711
0.0805103
0.0894831
0.0970537
0.113958
0.0804558
0.104447
0.0527162
0.11115
0.0617677
0.283873
0.0625545
0.0994119
0.0864912
0.0669637
0.102129
0.111036
0.0877914
0.0863226
0.100205
0.0604214
0.257773
0.361304
0.0991929
0.0932775
0.0839349
0.111741
0.106101
0.167604
0.0961542
0.0645889
0.0961364
0.0989778
0.0893089
0.105345
0.0298993
0.0951463
0.104983
0.051048
0.109277
0.105711
0.299472
0.0992057
0.10403
0.102931
0.0882372
0.0696707
0.0627139
0.104137
0.0659555
0.10845
0.0446439
0.102605
0.092687
0.0877783
0.112846
0.0638608
0.0796425
0.0924591
0.0953407
0.082886
0.103046
0.064193
0.105096
0.100445
0.0731559
0.112382
0.0686757
0.0676557
0.115214
0.102338
0.0612671
0.104896
0.091386
0.0894546
0.104063
0.0890598
0.103079
0.0996787
0.0949402
0.103887
0.112555
0.103991
0.084914
0.0528541
0.106924
0.106177
0.383255
0.105673
0.102165
0.0703202
0.0798178
0.527245
0.296771
0.106766
0.0464748
0.111384
0.0343683
0.0921667
0.0711677
0.0665576
0.0914965
0.107319
0.106815
0.103802
0.081912
0.105434
0.0885535
0.0729472
0.0940553
0.0988034
0.106806
0.0817424
0.0712822
0.106041
0.0888241
0.0917594
0.107277
0.106953
0.085193
0.105991
0.106253
0.110293
0.0689927
0.0864921
0.0635452
0.107413
0.101509
0.1047
0.0845366
0.10462
0.350384
0.095371
0.0740057
0.105278
0.100132
0.619586
0.0840072
0.0874736
0.102271
0.106605
0.085245
0.105448
0.0604158
0.0646911
0.334124
0.103935
0.109559
0.105465
0.072518
0.0834505
0.0925828
0.0975953
0.091731
0.103075
0.0943666
0.102327
0.111313
0.107624
0.0977522
0.11403
0.107821
0.07454
0.110243
0.0506058
0.0870873
0.107907
0.112532
0.0905665
0.0932917
0.0976698
0.104341
0.111685
0.100432
0.101433
0.0991263
0.0942185
0.108218
0.0687904
0.102119
0.0889031
0.0649034
0.0905548
0.0864804
0.0866627
0.105349
0.799726
0.0952422
0.101808
0.0737001
0.104765
0.107228
0.0957513
0.0897429
0.100255
0.0894147
0.0785212
0.108778
0.107329
0.102066
0.105688
0.110904
0.0930915
0.0743441
0.102429
0.0628154
0.104838
0.104821
0.0938092
0.0986346
0.111393
0.0893346
0.100444
0.0965984
0.109317
0.0831524
0.110438
0.0852243
0.0934037
0.105264
0.105942
0.0977392
0.0978191
0.103715
0.104716
0.0955254
0.091452
0.0982978
0.105103
0.101994
0.110764
0.0699426
0.100626
0.101337
0.111924
0.107844
0.110248
0.105297
0.104151
0.0961181
0.0994507
0.108113
0.10713
0.0720081
0.0945085
0.0594393
0.101842
0.107346
0.0947532
0.0994929
0.108502
0.106555
0.110624
0.10414
0.0894066
0.104209
0.104097
0.096831
0.0779507
0.0975865
0.105647
0.102234
0.107104
0.110019
0.108839
0.0913692
0.0822658
0.0926353
0.0995048
0.094573
0.0940274
0.102362
0.0971337
0.100579
0.0996208
0.0727506
0.103852
0.0967245
0.0835887
0.0762058
0.0964991
0.0994248
0.0991143
0.100992
0.10405
0.10922
0.102186
0.0883934
0.0913718
0.104318
0.103291
0.101139
0.103475
0.105848
0.101974
0.0999426
0.100158
0.100191
0.0998845
0.0969602
0.0830903
0.0985978
0.102182
0.0691328
0.10344
0.073289
0.0950169
0.109946
0.110369
0.0954333
0.100452
0.10953
0.102862
0.0992121
0.103532
0.0936473
0.103337
0.101076
0.062291
0.107718
0.100943
0.100111
0.104578
0.0947544
0.103422
0.0917171
0.101279
0.107196
0.101644
0.10905
0.103068
0.0985818
0.102064
0.221029
0.0951948
0.100777
0.107976
0.103229
0.113891
0.103735
0.102125
0.0650773
0.10695
0.0946245
0.0817713
0.101664
0.0991219
0.0831676
0.106591
0.0916446
0.100515
0.100159
0.106325
0.101345
0.110585
0.100958
0.10419
0.091181
0.0752576
0.0788826
0.092485
0.108267
0.109019
0.104239
0.100976
0.095244
0.0910646
0.1021
0.104215
0.0885747
0.102014
0.104809
0.102353
0.113487
0.101924
0.101857
0.0715435
0.101855
0.0904055
0.102712
0.108482
0.102851
0.102905
0.101579
0.101417
0.101226
0.106248
0.101567
0.104855
0.102847
0.0805506
0.1015
0.102802
0.115274
0.0924216
0.10224
0.102774
0.101408
0.10513
0.10143
0.102059
0.0980324
0.102149
0.088376
0.107967
0.102686
0.0791561
0.101593
0.104526
0.101491
0.101752
0.101701
0.105838
0.0817231
0.108843
0.106008
0.107889
0.094148
0.104992
0.100107
0.102642
0.106826
0.106607
0.103378
0.102989
0.10192
0.094941
0.102572
0.0805419
0.107161
0.102371
0.103839
0.0966565
0.102698
0.102237
0.101112
0.106022
0.102635
0.096057
0.101758
0.101791
0.104864
0.100882
0.102414
0.0712209
0.0927882
0.102436
0.102353
0.102083
0.107318
0.101413
0.101186
0.100884
0.102252
0.0823231
0.101916
0.091093
0.102251
0.100853
0.105802
0.0726621
0.091013
0.10364
0.105072
0.102771
0.10472
0.0829178
0.17192
0.0747183
0.0850166
0.10684
0.102173
0.102695
0.0902249
0.101708
0.10291
0.101881
0.102503
0.102476
0.103289
0.100465
0.0952284
0.102122
0.10422
0.120574
0.0955397
0.236351
0.10131
0.10277
0.101152
0.10669
0.101711
0.100836
0.0939838
0.0793466
0.0886665
0.0930227
0.0704829
0.0806556
0.0843892
0.103337
0.0867341
0.102067
0.104038
0.103706
0.101487
0.102691
0.10173
0.101195
0.10209
0.10188
0.103851
0.101877
0.0967
0.101765
0.0739892
0.106007
0.101045
0.101584
0.102252
0.101735
0.100119
0.0971669
0.0956171
0.0693759
0.0962663
0.0756613
0.104818
0.101943
0.105461
0.0965818
0.102569
0.0995435
0.10565
0.101696
0.101015
0.102938
0.106127
0.0862265
0.101834
0.0997585
0.0839194
0.0865786
0.10136
0.0664987
0.0966632
0.105087
0.0763351
0.103601
0.101684
0.100889
0.0727543
0.105709
0.0965119
0.149247
0.0998655
0.102347
0.102689
0.0994127
0.101092
0.0995289
0.0986789
0.0946455
0.104905
0.100204
0.101934
0.105489
0.100663
0.102274
0.101638
0.102264
0.104007
0.0953763
0.0998845
0.101217
0.100728
0.101145
0.0938197
0.102276
0.102517
0.283895
0.0946372
0.149441
0.101325
0.100929
0.0385367
0.0985099
0.101277
0.100343
0.102876
0.0989617
0.0953738
0.101562
0.101272
0.0947481
0.10377
0.101295
0.0978587
0.0998107
0.0918028
0.075473
0.102189
0.104711
0.101236
0.0833116
0.0981859
0.101262
0.0942226
0.100701
0.101401
0.10186
0.101553
0.0991522
0.0973708
0.0978904
0.0996717
0.0641219
0.0939501
0.0994463
0.0996321
0.101338
0.0637324
0.0992127
0.102616
0.0771696
0.100343
0.100324
0.101221
0.0917861
0.101507
0.101869
0.0994672
0.093671
0.251625
0.103705
0.10491
0.105002
0.104645
0.103028
0.0973614
0.104069
0.101307
0.0667836
0.099156
0.0737384
0.100479
0.0999451
0.104573
0.0982584
0.100689
0.10441
0.100667
0.0617621
0.104375
0.511469
0.0796427
0.101186
0.0990705
0.100311
0.0990097
0.0787992
0.0675048
0.103849
0.0991857
0.0862305
0.10147
0.101137
0.092107
0.09634
0.0978648
0.100801
0.098784
0.102796
0.0999458
0.0957775
0.100847
0.0815596
0.101719
0.0961492
0.100751
0.101138
0.0797554
0.477372
0.100276
0.0932171
0.153266
0.100789
0.0984753
0.100814
0.100042
0.103133
0.0943639
0.099586
0.416579
0.0964113
0.101512
0.406152
0.0966034
0.139833
0.100111
0.101939
0.0945119
0.0918948
0.0965679
0.0991791
0.0904134
0.100812
0.103894
0.0988308
0.10006
0.0928993
0.0785583
0.0966012
0.0715546
0.0999466
0.103823
0.0587467
0.100033
0.100246
0.101235
0.0587179
0.102903
0.100255
0.0937096
0.0965364
0.0995872
0.100925
0.0980983
0.0735649
0.061795
0.09444
0.0859666
0.100768
0.0899363
0.0963784
0.0947938
0.0749433
0.0937242
0.101321
0.101295
0.0997669
0.0992569
0.0968294
0.0926132
0.101557
0.0950023
0.0859638
0.103155
0.0944402
0.103667
0.0758873
0.0961224
0.0976185
0.102052
0.100439
0.103378
0.100669
0.100416
0.100378
0.0950618
0.0984592
0.103897
0.102884
0.103971
0.183951
0.0753436
0.0761281
0.100441
0.0949906
0.100599
0.110641
0.0997085
0.0829599
0.0919596
0.0992976
0.101078
0.07226
0.0783274
0.0947955
0.094355
0.0943521
0.0977005
0.0926949
0.10293
0.103362
0.100779
0.101732
0.0992511
0.090568
0.0997067
0.0996158
0.100401
0.0944785
0.103581
0.0983409
0.0957771
0.11241
0.0925988
0.0989527
0.103425
0.100458
0.0882509
0.0999003
0.0909553
0.088727
0.0569008
0.0982414
0.0732979
0.103076
0.0981135
0.0879632
0.0888203
0.10209
0.0913317
0.0940578
0.0890931
0.0999071
0.100265
0.150593
0.100276
0.0893079
0.097345
0.253941
0.100074
0.0893823
0.0659377
0.0908802
0.0877556
0.0728968
0.100024
0.101771
0.0996207
0.0893121
0.100116
0.192704
0.198618
0.0953358
0.100039
0.102858
0.112756
0.100126
0.0949697
0.0852577
0.089092
0.0856162
0.149281
0.0989392
0.0516277
0.0847935
0.099329
0.100154
0.0986685
0.09559
0.0999616
0.195536
0.242842
0.09505
0.0951363
0.0935516
0.102741
0.0856561
0.09779
0.0994105
0.0893742
0.100307
0.102468
0.100064
0.0591101
0.0999277
0.0858761
0.126679
0.070124
0.0995918
0.099722
0.102036
0.0859149
0.0847397
0.0970146
0.0986491
0.0900971
0.0768333
0.085769
0.099696
0.246207
0.0706314
0.0835568
0.0887347
0.141409
0.0948924
0.0854412
0.135791
0.119798
0.0997887
0.0867994
0.101706
0.0993559
0.102662
0.102977
0.0956679
0.0994514
0.0944327
0.0997068
0.0996056
0.243479
0.144809
0.0930511
0.0951322
0.0868614
0.0996803
0.0699635
0.0849547
0.102896
0.0838747
0.0813003
0.0892398
0.100178
0.0996143
0.0995913
0.059124
0.111945
0.0994757
0.0992473
0.0800552
0.100231
0.0820999
0.0993145
0.0727362
0.147435
0.088232
0.0986611
0.097453
0.146802
0.0733284
0.0984013
0.0547131
0.102679
0.0965533
0.073659
0.0967169
0.0737743
0.0816529
0.0989797
0.101873
0.0994514
0.072081
0.09916
0.0740667
0.0944862
0.0793233
0.0665266
0.0964408
0.0741883
0.102327
0.0921121
0.0996113
0.0513561
0.0876723
0.0964341
0.0843389
0.0994992
0.175222
0.142172
0.0990709
0.0926105
0.0741274
0.0946272
0.101532
0.0922547
0.0782799
0.0518289
0.146481
0.098179
0.0875922
0.0991492
0.101534
0.0950981
0.0948239
0.0951108
0.0717939
0.0986855
0.0657139
0.102531
0.09693
0.0988561
0.0749591
0.0687777
0.10004
0.0738861
0.0992499
0.0662355
0.356883
0.0993086
0.0665812
0.0955471
0.0667307
0.0967122
0.114877
0.0903816
0.0690339
0.174948
0.0991126
0.0968506
0.0666762
0.234873
0.0715125
0.083607
0.078167
0.0679376
0.0664264
0.0651687
0.101754
0.0971332
0.0867418
0.0840359
0.0666137
0.0688862
0.0940489
0.0993834
0.0964149
0.0690434
0.0859367
0.0717922
0.0965248
0.0881837
0.144282
0.0955359
0.139048
0.098148
0.0961673
0.0985442
0.0922257
0.0893139
0.0660063
0.0953938
0.0721621
0.098374
0.0754858
0.0882536
0.0948269
0.0988529
0.0734616
0.443537
0.0983969
0.0870319
0.0702111
0.101566
0.0893067
0.0637199
0.0951962
0.339252
0.0649156
0.0879053
0.114292
0.256845
0.0829083
0.0829979
0.0976175
0.114308
0.064844
0.0863834
0.0980519
0.158714
0.0853296
0.0893036
0.0863276
0.0654468
0.0988747
0.285166
0.0849572
0.0987625
0.0600405
0.0962976
0.101213
0.0613778
0.0987539
0.098793
0.0862438
0.0908727
0.087081
0.0997228
0.217469
0.24756
0.0878093
0.0625025
0.0733835
0.223812
0.0982198
0.0862697
0.214517
0.0949515
0.0726946
0.0852011
0.101854
0.258718
0.257241
0.0730559
0.0873779
0.123399
0.213842
0.188776
0.0721946
0.0756769
0.066806
0.0663984
0.0936121
0.0957676
0.0961161
0.0892462
0.0943559
0.0977196
0.194105
0.0983642
0.168511
0.208227
0.0990273
0.0846596
0.0655526
0.262877
0.0968176
0.0583997
0.0918387
0.120848
0.0620694
0.123453
0.0960401
0.141111
0.075519
0.0552482
0.126049
0.10107
0.16484
0.0861613
0.0864175
0.107901
0.128513
0.0732588
0.130959
0.087348
0.230871
0.133437
0.0646381
0.0604671
0.0670413
0.068393
0.279521
0.26281
0.135994
0.0980916
0.0793071
0.0946696
0.0978501
0.0719507
0.0824901
0.0709814
0.0957592
0.0898087
0.0978521
0.120973
0.0717007
0.0510121
0.089127
0.0910142
0.0983031
0.0801238
0.0526219
0.212205
0.0638797
0.138663
0.101712
0.100375
0.097359
0.0719462
0.0859851
0.056127
0.0733888
0.0943595
0.25126
0.0878324
0.0867381
0.056642
0.112149
0.0700954
0.0670168
0.0701528
0.0839129
0.0954525
0.117514
0.0975352
0.0931861
0.115354
0.0889542
0.100695
0.101587
0.0661711
0.0966745
0.0937517
0.141352
0.0658509
0.0964641
0.0914493
0.113798
0.0973335
0.0637953
0.0662935
0.0940247
0.182228
0.0974003
0.0637665
0.0957645
0.0992316
0.0968964
0.065009
0.0657953
0.0952333
0.055593
0.098501
0.0522763
0.085748
0.277324
0.136183
0.123779
0.22818
0.0858066
0.153525
0.0963613
0.0734364
0.055294
0.137536
0.200307
0.0715854
0.0950915
0.0975822
0.100479
0.0638329
0.0876701
0.0904455
0.112192
0.0887362
0.0627539
0.0945715
0.0958674
0.0668908
0.096111
0.0819989
0.0674729
0.0722635
0.141667
0.0936511
0.0952463
0.0739497
0.0927377
0.0502275
0.179436
0.069319
0.101587
0.181332
0.0884748
0.182064
0.093171
0.0859935
0.180952
0.0854613
0.125089
0.177774
0.0935976
0.0746003
0.110096
0.172295
0.164405
0.0910122
0.0917684
0.0923773
0.0830715
0.071089
0.0944388
0.0640466
0.0921435
0.314923
0.282402
0.154247
0.0852305
0.0734144
0.0881484
0.117073
0.0941804
0.137157
0.128278
0.0920762
0.0876677
0.121545
0.105442
0.0709404
0.0465088
0.142291
0.114349
0.0851325
0.187808
0.0684576
0.0914656
0.086772
0.086509
0.0904041
0.179051
0.172722
0.0666869
0.0847555
0.167218
0.0929634
0.13705
0.0907417
0.0631789
0.245601
0.151402
0.190781
0.126089
0.0698614
0.0674801
0.0945023
0.0835296
0.0842785
0.0998972
0.0682684
0.0846638
0.0984926
0.0906555
0.16115
0.0973809
0.0740084
0.0815091
0.0844909
0.0949628
0.129174
0.0977309
0.0928573
0.167314
0.0945087
0.0887831
0.0893042
0.0848294
0.0726688
0.190603
0.072996
0.20706
0.132286
0.106321
0.0820593
0.0934789
0.0850584
0.0839602
0.0955116
0.072025
0.112812
0.0809923
0.153155
0.176593
0.0655821
0.153523
0.0733331
0.130589
0.087125
0.098607
0.0703007
0.0820668
0.073197
0.0684751
0.0426297
0.0965996
0.124143
0.142945
0.0867237
0.193532
0.1734
0.0920217
0.0647575
0.0653454
0.22037
0.0826209
0.187464
0.126901
0.091894
0.0984684
0.206603
0.133383
0.0803136
0.19863
0.100236
0.0705809
0.150582
0.0805413
0.0630941
0.0788777
0.124911
0.0695969
0.0948707
0.0929159
0.122073
0.0904113
0.0403656
0.0664241
0.0898412
0.0838259
0.0918151
0.0637007
0.0657629
0.189773
0.0853498
0.083811
0.0792579
0.0917575
0.079463
0.066691
0.118725
0.164528
0.067295
0.0955117
0.0717669
0.0564753
0.0532848
0.129735
0.183328
0.0821059
0.0675048
0.13023
0.0882946
0.130994
0.131049
0.0614819
0.0721453
0.0769752
0.068943
0.206896
0.207757
0.0626027
0.133638
0.129055
0.130042
0.0602539
0.0590146
0.07166
0.07971
0.0682697
0.0850734
0.127652
0.0807745
0.0567068
0.0786683
0.111812
0.18703
0.0790474
0.0860861
0.0661141
0.0789889
0.0615334
0.066995
0.0849979
0.127817
0.202928
0.0671779
0.115818
0.0620629
0.153998
0.0631525
0.160585
0.127639
0.17843
0.0760331
0.199566
0.0767028
0.130885
0.0647421
0.0620581
0.146983
0.12027
0.0590723
0.12313
0.120788
0.135315
0.0662654
0.154236
0.0646198
0.138748
0.0469305
0.0733556
0.056539
0.192103
0.181107
0.110909
0.109788
0.12835
0.12336
0.166916
0.127184
0.0581929
0.062405
0.069507
0.0608737
0.173203
0.10695
0.0990262
0.0464288
0.0592732
0.0542631
0.0600227
0.0607932
0.0679865
0.0583905
0.142061
0.107635
0.0546902
0.186345
0.0983532
0.130937
0.0896757
0.0450415
0.0500486
0.0860089
0.0449291
0.0608557
0.0532356
0.0565414
0.0943168
0.131841
0.119215
0.172912
0.119949
0.134041
0.135599
0.117376
0.127946
0.134398
0.126479
0.106006
0.161904
0.184373
0.149623
0.102937
0.170521
0.108215
0.0977507
0.0576039
0.0598926
0.0935972
0.105025
0.120668
0.111531
0.176681
0.0433151
0.114284
0.0541487
0.0591589
0.0570128
0.122428
0.123535
0.0877806
0.0838703
0.0818841
0.0608203
0.045364
0.0952062
0.0699766
0.0440744
0.0995303
0.116135
0.115117
0.0870793
0.342714
0.0695806
0.366158
0.0977914
0.0342686
0.0917685
0.0864555
0.423683
0.0776226
0.0551021
0.0924925
0.122715
0.123647
0.377713
0.265439
0.421334
0.248363
0.336436
0.295039
0.0891543
0.216817
0.0825879
0.318392
0.223993
0.268515
0.23793
0.0619892
0.0997787
0.328118
0.673455
0.731036
0.0870911
0.0908529
0.321602
0.0665749
0.114792
0.0455349
0.0340173
0.111006
0.197784
0.171764
0.133997
0.172656
0.163917
0.129934
0.145475
0.148591
0.133354
0.0835797
0.0641366
0.0414852
0.1147
0.215329
0.161773
0.352756
0.0453849
0.0502823
0.184774
0.0739397
0.0510369
0.0522015
0.0896725
0.172543
0.0398875
0.0531886
0.0541931
0.201352
0.107871
0.0560858
0.0759696
0.149877
0.0657368
0.102082
0.0612503
0.235101
0.219212
0.0932809
0.0845045
0.0983827
0.0337477
0.0419831
0.177026
0.0860893
0.107077
0.0383454
0.107066
0.0905307
0.116685
0.0913636
0.10287
0.0606753
0.0964831
0.06647
0.0318194
0.0362987
0.318059
0.0953806
0.129659
0.278176
0.0977106
)
;

boundaryField
{
    patch0
    {
        type            epsilonWallFunction;
        value           nonuniform List<scalar> 
4010
(
0.103826
0.103826
0.109977
0.109977
0.114786
0.114786
0.114766
0.114766
0.110118
0.110118
0.111206
0.111206
0.11085
0.11085
0.103056
0.103056
0.101993
0.101993
0.116267
0.116267
0.0934368
0.0934368
0.0922737
0.0922737
0.0572383
0.0572383
0.0873405
0.0873405
0.106368
0.106368
0.106034
0.106034
0.0593849
0.0593849
0.0877747
0.0877747
0.0944166
0.0944166
0.0886601
0.0886601
0.0384462
0.0384462
0.08077
0.08077
0.0857822
0.0857822
0.0922791
0.0922791
0.081408
0.081408
0.0762635
0.0762635
0.075043
0.075043
0.114868
0.114868
0.104253
0.104253
0.106632
0.106632
0.0808538
0.0808538
0.0793212
0.0793212
0.0949771
0.0949771
0.0699962
0.0699962
0.115702
0.115702
0.0923123
0.0923123
0.0725205
0.0725205
0.109108
0.109108
0.10056
0.10056
0.0720832
0.0720832
0.0724266
0.0724266
0.0453485
0.0453485
0.0741589
0.0741589
0.0835908
0.0835908
0.107064
0.107064
0.0856305
0.0856305
0.0992087
0.0992087
0.115447
0.115447
0.0321465
0.0321465
0.0315023
0.0315023
0.0989599
0.0989599
0.0473196
0.0473196
0.0820866
0.0820866
0.0956367
0.0956367
0.0564562
0.0564562
0.116722
0.116722
0.0934818
0.0934818
0.113388
0.113388
0.112746
0.112746
0.10138
0.10138
0.0939067
0.0939067
0.104588
0.104588
0.092876
0.092876
0.0962218
0.0962218
0.0907929
0.0907929
0.116235
0.116235
0.102904
0.102904
0.0926131
0.0926131
0.0950797
0.0950797
0.0976978
0.0976978
0.0361883
0.0361883
0.104061
0.104061
0.0957229
0.0957229
0.109563
0.109563
0.109053
0.109053
0.0656679
0.0656679
0.116082
0.116082
0.111174
0.111174
0.115118
0.115118
0.0983668
0.0983668
0.111584
0.111584
0.0795311
0.0795311
0.102584
0.102584
0.0372682
0.0372682
0.098379
0.098379
0.0959467
0.0959467
0.115735
0.115735
0.103639
0.103639
0.0304246
0.0304246
0.0341043
0.0341043
0.100299
0.100299
0.0841312
0.0841312
0.0692342
0.0692342
0.0678279
0.0678279
0.0389036
0.0389036
0.079774
0.079774
0.115466
0.115466
0.108725
0.108725
0.0987438
0.0987438
0.0564874
0.0564874
0.112424
0.112424
0.0390914
0.0390914
0.0967309
0.0967309
0.0901285
0.0901285
0.0690841
0.0690841
0.113609
0.113609
0.101393
0.101393
0.0709145
0.0709145
0.102342
0.102342
0.0711592
0.0711592
0.113968
0.113968
0.0940403
0.0940403
0.112787
0.112787
0.106788
0.106788
0.115166
0.115166
0.0317895
0.0317895
0.113861
0.113861
0.106943
0.106943
0.101063
0.101063
0.115683
0.115683
0.0855553
0.0855553
0.107541
0.107541
0.0369827
0.0369827
0.0309664
0.0309664
0.104714
0.104714
0.0753919
0.0753919
0.0666374
0.0666374
0.110296
0.110296
0.0821879
0.0821879
0.166854
0.166854
0.113481
0.113481
0.108205
0.108205
0.452855
0.452855
0.106924
0.106924
0.0451953
0.0451953
0.0744792
0.0744792
0.108848
0.108848
0.102208
0.102208
0.0945258
0.0945258
0.114686
0.114686
0.116552
0.116552
0.101846
0.101846
0.687856
0.687856
0.687856
0.615173
0.615173
0.615173
0.11197
0.11197
0.0804362
0.0804362
0.0715565
0.0715565
0.0439265
0.0439265
0.103271
0.103271
0.102439
0.102439
0.0958409
0.0958409
0.217802
0.217802
0.217802
0.0523117
0.0523117
0.10728
0.10728
0.110653
0.110653
0.0778493
0.0778493
0.106156
0.106156
0.113374
0.113374
0.110928
0.110928
0.689934
0.689934
0.108254
0.108254
0.0646244
0.0646244
0.110312
0.110312
0.113392
0.113392
0.0926063
0.0926063
0.0752502
0.0752502
0.0800235
0.0800235
0.136027
0.136027
0.115304
0.115304
0.0824414
0.0824414
0.0968324
0.0968324
0.107413
0.107413
0.112926
0.112926
0.0942916
0.0942916
0.116657
0.116657
0.0578672
0.0578672
0.106239
0.106239
0.129424
0.129424
0.0982357
0.0982357
0.10938
0.10938
0.0690949
0.0690949
0.107023
0.107023
0.113482
0.113482
0.0805188
0.0805188
0.0312572
0.0312572
0.106813
0.106813
0.0536664
0.0536664
0.0747787
0.0747787
0.114566
0.114566
0.111179
0.111179
0.0649629
0.0649629
0.103042
0.103042
0.11035
0.11035
0.107817
0.107817
0.0845193
0.0845193
0.230035
0.230035
0.230035
0.0838746
0.0838746
0.0590004
0.0590004
0.0653802
0.0653802
0.0566279
0.0566279
0.299433
0.299433
0.1117
0.1117
0.0817408
0.0817408
0.100187
0.100187
0.104744
0.104744
0.0692917
0.0692917
0.107057
0.107057
0.0475577
0.0475577
0.0458078
0.0458078
0.477166
0.477166
0.477166
0.11997
0.11997
0.0922842
0.0922842
0.100102
0.100102
0.0845009
0.0845009
0.0761972
0.0761972
0.113354
0.113354
0.103202
0.103202
0.0689372
0.0689372
0.102541
0.102541
0.108748
0.108748
0.0773535
0.0773535
0.101333
0.101333
0.0820187
0.0820187
0.101555
0.101555
0.093736
0.093736
0.0827967
0.0827967
0.106545
0.106545
0.113242
0.113242
0.0892356
0.0892356
0.0579205
0.0579205
0.310428
0.310428
0.100477
0.100477
0.0652198
0.0652198
0.243089
0.243089
0.0872537
0.0872537
0.303584
0.303584
0.303584
0.102142
0.102142
0.10196
0.10196
0.0898895
0.0898895
0.242993
0.242993
0.242993
0.106178
0.106178
0.0639293
0.0639293
0.101216
0.101216
0.0489219
0.0489219
0.510028
0.510028
0.0414831
0.0414831
0.0922072
0.0922072
0.115953
0.115953
0.113114
0.113114
0.113027
0.113027
0.108617
0.108617
0.148273
0.148273
0.0890152
0.0890152
0.0917188
0.0917188
0.1142
0.1142
0.104462
0.104462
0.0789475
0.0789475
0.0649302
0.0649302
0.0778867
0.0778867
0.096711
0.096711
0.0805103
0.0805103
0.0894831
0.0894831
0.0970537
0.0970537
0.113958
0.113958
0.0804558
0.0804558
0.104447
0.104447
0.0527162
0.0527162
0.11115
0.11115
0.0617677
0.0617677
0.283873
0.283873
0.0625545
0.0625545
0.0994119
0.0994119
0.0864912
0.0864912
0.0669637
0.0669637
0.102129
0.102129
0.111036
0.111036
0.0877914
0.0877914
0.0863226
0.0863226
0.100205
0.100205
0.0604214
0.0604214
0.257773
0.257773
0.361304
0.361304
0.361304
0.0991929
0.0991929
0.0932775
0.0932775
0.0839349
0.0839349
0.111741
0.111741
0.106101
0.106101
0.167604
0.167604
0.0961542
0.0961542
0.0645889
0.0645889
0.0961364
0.0961364
0.0989778
0.0989778
0.0893089
0.0893089
0.105345
0.105345
0.0298993
0.0298993
0.0951463
0.0951463
0.104983
0.104983
0.051048
0.051048
0.109277
0.109277
0.105711
0.105711
0.299472
0.299472
0.299472
0.0992057
0.0992057
0.10403
0.10403
0.102931
0.102931
0.0882372
0.0882372
0.0696707
0.0696707
0.0627139
0.0627139
0.104137
0.104137
0.0659555
0.0659555
0.10845
0.10845
0.0446439
0.0446439
0.102605
0.102605
0.092687
0.092687
0.0877783
0.0877783
0.112846
0.112846
0.0638608
0.0638608
0.0796425
0.0796425
0.0924591
0.0924591
0.0953407
0.0953407
0.082886
0.082886
0.103046
0.103046
0.064193
0.064193
0.105096
0.105096
0.100445
0.100445
0.0731559
0.0731559
0.112382
0.112382
0.0686757
0.0686757
0.0676557
0.0676557
0.115214
0.115214
0.102338
0.102338
0.0612671
0.0612671
0.104896
0.104896
0.091386
0.091386
0.0894546
0.0894546
0.104063
0.104063
0.0890598
0.0890598
0.103079
0.103079
0.0996787
0.0996787
0.0949402
0.0949402
0.103887
0.103887
0.112555
0.112555
0.103991
0.103991
0.084914
0.084914
0.0528541
0.0528541
0.106924
0.106924
0.106177
0.106177
0.383255
0.383255
0.105673
0.105673
0.102165
0.102165
0.0703202
0.0703202
0.0798178
0.0798178
0.527245
0.527245
0.296771
0.296771
0.106766
0.106766
0.0464748
0.0464748
0.111384
0.111384
0.0343683
0.0343683
0.0921667
0.0921667
0.0711677
0.0711677
0.0665576
0.0665576
0.0914965
0.0914965
0.107319
0.107319
0.106815
0.106815
0.103802
0.103802
0.081912
0.081912
0.105434
0.105434
0.0885535
0.0885535
0.0729472
0.0729472
0.0940553
0.0940553
0.0988034
0.0988034
0.106806
0.106806
0.0817424
0.0817424
0.0712822
0.0712822
0.106041
0.106041
0.0888241
0.0888241
0.0917594
0.0917594
0.107277
0.107277
0.106953
0.106953
0.085193
0.085193
0.105991
0.105991
0.106253
0.106253
0.110293
0.110293
0.0689927
0.0689927
0.0864921
0.0864921
0.0635452
0.0635452
0.107413
0.107413
0.101509
0.101509
0.1047
0.1047
0.0845366
0.0845366
0.10462
0.10462
0.350384
0.350384
0.095371
0.095371
0.0740057
0.0740057
0.105278
0.105278
0.100132
0.100132
0.619586
0.619586
0.619586
0.0840072
0.0840072
0.0874736
0.0874736
0.102271
0.102271
0.106605
0.106605
0.085245
0.085245
0.105448
0.105448
0.0604158
0.0604158
0.0646911
0.0646911
0.334124
0.334124
0.334124
0.103935
0.103935
0.109559
0.109559
0.105465
0.105465
0.072518
0.072518
0.0834505
0.0834505
0.0925828
0.0925828
0.0975953
0.0975953
0.091731
0.091731
0.103075
0.103075
0.0943666
0.0943666
0.102327
0.102327
0.111313
0.111313
0.107624
0.107624
0.0977522
0.0977522
0.11403
0.11403
0.107821
0.107821
0.07454
0.07454
0.110243
0.110243
0.0506058
0.0506058
0.0870873
0.0870873
0.107907
0.107907
0.112532
0.112532
0.0905665
0.0905665
0.0932917
0.0932917
0.0976698
0.0976698
0.104341
0.104341
0.111685
0.111685
0.100432
0.100432
0.101433
0.101433
0.0991263
0.0991263
0.0942185
0.0942185
0.108218
0.108218
0.0687904
0.0687904
0.102119
0.102119
0.0889031
0.0889031
0.0649034
0.0649034
0.0905548
0.0905548
0.0864804
0.0864804
0.0866627
0.0866627
0.105349
0.105349
0.799726
0.799726
0.799726
0.0952422
0.0952422
0.101808
0.101808
0.0737001
0.0737001
0.104765
0.104765
0.107228
0.107228
0.0957513
0.0957513
0.0897429
0.0897429
0.100255
0.100255
0.0894147
0.0894147
0.0785212
0.0785212
0.108778
0.108778
0.107329
0.107329
0.102066
0.102066
0.105688
0.105688
0.110904
0.110904
0.0930915
0.0930915
0.0743441
0.0743441
0.102429
0.102429
0.0628154
0.0628154
0.104838
0.104838
0.104821
0.104821
0.0938092
0.0938092
0.0986346
0.0986346
0.111393
0.111393
0.0893346
0.0893346
0.100444
0.100444
0.0965984
0.0965984
0.109317
0.109317
0.0831524
0.0831524
0.110438
0.110438
0.0852243
0.0852243
0.0934037
0.0934037
0.105264
0.105264
0.105942
0.105942
0.0977392
0.0977392
0.0978191
0.0978191
0.103715
0.103715
0.104716
0.104716
0.0955254
0.0955254
0.091452
0.091452
0.0982978
0.0982978
0.105103
0.105103
0.101994
0.101994
0.110764
0.110764
0.0699426
0.0699426
0.100626
0.100626
0.101337
0.101337
0.111924
0.111924
0.107844
0.107844
0.110248
0.110248
0.105297
0.105297
0.104151
0.104151
0.0961181
0.0961181
0.0994507
0.0994507
0.108113
0.108113
0.10713
0.10713
0.0720081
0.0720081
0.0945085
0.0945085
0.0594393
0.0594393
0.101842
0.101842
0.107346
0.107346
0.0947532
0.0947532
0.0994929
0.0994929
0.108502
0.108502
0.106555
0.106555
0.110624
0.110624
0.10414
0.10414
0.0894066
0.0894066
0.104209
0.104209
0.104097
0.104097
0.096831
0.096831
0.0779507
0.0779507
0.0975865
0.0975865
0.105647
0.105647
0.102234
0.102234
0.107104
0.107104
0.110019
0.110019
0.108839
0.108839
0.0913692
0.0913692
0.0822658
0.0822658
0.0926353
0.0926353
0.0995048
0.0995048
0.094573
0.094573
0.0940274
0.0940274
0.102362
0.102362
0.0971337
0.0971337
0.100579
0.100579
0.0996208
0.0996208
0.0727506
0.0727506
0.103852
0.103852
0.0967245
0.0967245
0.0835887
0.0835887
0.0762058
0.0762058
0.0964991
0.0964991
0.0994248
0.0994248
0.0991143
0.0991143
0.100992
0.100992
0.10405
0.10405
0.10922
0.10922
0.102186
0.102186
0.0883934
0.0883934
0.0913718
0.0913718
0.104318
0.104318
0.103291
0.103291
0.101139
0.101139
0.103475
0.103475
0.105848
0.105848
0.101974
0.101974
0.0999426
0.0999426
0.100158
0.100158
0.100191
0.100191
0.0998845
0.0998845
0.0969602
0.0969602
0.0830903
0.0830903
0.0985978
0.0985978
0.102182
0.102182
0.0691328
0.0691328
0.10344
0.10344
0.073289
0.073289
0.0950169
0.0950169
0.109946
0.109946
0.110369
0.110369
0.0954333
0.0954333
0.100452
0.100452
0.10953
0.10953
0.102862
0.102862
0.0992121
0.0992121
0.103532
0.103532
0.0936473
0.0936473
0.103337
0.103337
0.101076
0.101076
0.062291
0.062291
0.107718
0.107718
0.100943