/*--------------------------------*- C++ -*----------------------------------*\
  =========                 |
  \\      /  F ield         | OpenFOAM: The Open Source CFD Toolbox
   \\    /   O peration     | Website:  https://openfoam.org
    \\  /    A nd           | Version:  8
     \\/     M anipulation  |
\*---------------------------------------------------------------------------*/
FoamFile
{
    version     2.0;
    format      ascii;
    class       volScalarField;
    location    "0.3";
    object      k;
}
// * * * * * * * * * * * * * * * * * * * * * * * * * * * * * * * * * * * * * //

dimensions      [0 2 -2 0 0 0 0];

internalField   nonuniform List<scalar> 
1924
(
0.0547873
0.0570508
0.0588502
0.0588171
0.0571042
0.0576622
0.0574944
0.0547808
0.0543139
0.0593098
0.0513032
0.0508475
0.0368226
0.0491331
0.0558352
0.0556548
0.0377329
0.0493457
0.0514849
0.0497594
0.028256
0.0464975
0.048262
0.0511325
0.0467425
0.0446148
0.0442125
0.0587919
0.0550468
0.0558791
0.046367
0.0459268
0.0514898
0.0420882
0.0590831
0.0507028
0.0432602
0.0568429
0.0536917
0.0429276
0.0432107
0.0315359
0.043858
0.0473886
0.0560628
0.0482403
0.0534519
0.0589711
0.0250934
0.0247519
0.0531765
0.0324445
0.0470154
0.0519857
0.0365745
0.059433
0.0512347
0.0582633
0.0580476
0.0539195
0.0513095
0.0550137
0.0509117
0.052192
0.0501991
0.0592412
0.0543577
0.0508436
0.0518272
0.0527148
0.027089
0.0548479
0.0520018
0.0568779
0.056669
0.0402006
0.0591871
0.0574217
0.0588558
0.0529449
0.0576241
0.0459089
0.0544502
0.0276785
0.0527337
0.052059
0.0590752
0.0549976
0.0241833
0.0260879
0.0534147
0.0475528
0.0419994
0.0413748
0.0284897
0.0460519
0.0589915
0.0566356
0.0529212
0.0361615
0.0580803
0.0285801
0.0521537
0.0497847
0.0418813
0.0583056
0.0542485
0.0425488
0.0543077
0.0427995
0.0584842
0.0514941
0.0580846
0.0559623
0.0588684
0.0248996
0.0585657
0.0560678
0.0539254
0.0590452
0.0480196
0.0295552
0.0275311
0.0244615
0.0550931
0.0443864
0.0407042
0.0571123
0.0471975
0.0375822
0.0583106
0.0566544
0.0352143
0.0559977
0.0314713
0.0441312
0.0568221
0.0545451
0.0520032
0.058749
0.0593525
0.0539939
0.0392646
0.0361759
0.0579518
0.0462617
0.0428146
0.0307453
0.0546963
0.0544155
0.0520294
0.0298031
0.0346009
0.0563505
0.0575044
0.0452342
0.0293018
0.0583756
0.057436
0.0461058
0.0564749
0.0399031
0.0574079
0.0306173
0.050871
0.0444232
0.0462332
0.0287385
0.0589128
0.0472841
0.0522355
0.0563676
0.058068
0.0513171
0.0594031
0.0370854
0.0557655
0.0237624
0.0528774
0.0571151
0.0418645
0.0561028
0.0582526
0.0464211
0.0246301
0.0560513
0.0352107
0.0442291
0.0586698
0.0574775
0.0400175
0.0548327
0.0572279
0.0565333
0.0480619
0.0309086
0.0476545
0.0376151
0.0403128
0.0366392
0.0400843
0.0577096
0.0470412
0.0537754
0.0551588
0.0419552
0.0562849
0.0325548
0.0316606
0.0292638
0.0317904
0.0510221
0.0539139
0.048045
0.0446437
0.0582045
0.054705
0.0415129
0.0546264
0.0565658
0.0448929
0.0540168
0.047136
0.0544094
0.0514566
0.0472654
0.0558988
0.0581989
0.0498834
0.0372136
0.0338858
0.0534636
0.0402802
0.0328656
0.0489386
0.0221645
0.0546124
0.0544549
0.0502119
0.0320589
0.0558009
0.0397831
0.0542499
0.0331952
0.0472982
0.0297258
0.0508682
0.0591658
0.0581156
0.0581125
0.056648
0.0330141
0.0497914
0.0508039
0.0585401
0.055332
0.045588
0.0401821
0.0452124
0.0525401
0.0463115
0.0500416
0.0522863
0.0584176
0.0463372
0.0550323
0.0348814
0.057434
0.03876
0.0390131
0.0391424
0.0533339
0.0485072
0.0410438
0.05408
0.0574366
0.0492623
0.048622
0.053926
0.0382974
0.0398048
0.0333124
0.0530349
0.0514166
0.0474045
0.0576558
0.0557408
0.0352321
0.0523851
0.0400637
0.0525636
0.0529787
0.0497271
0.0555955
0.0238906
0.0518014
0.055509
0.0341496
0.056761
0.0557343
0.0358074
0.0535813
0.0551572
0.0546343
0.0495215
0.0421706
0.0391824
0.055144
0.0406122
0.056552
0.0312266
0.0544779
0.0512109
0.0491254
0.0580771
0.0396427
0.0458819
0.0509996
0.0522413
0.0473563
0.0545086
0.0398347
0.0557342
0.0537119
0.0435583
0.0579067
0.0417266
0.0413333
0.0589305
0.0544151
0.0386631
0.0551909
0.0504472
0.0500395
0.0549005
0.049612
0.0545418
0.0537959
0.0521234
0.0553183
0.0579618
0.054976
0.0480476
0.0349647
0.0561002
0.0557626
0.0371144
0.05555
0.0543253
0.0424175
0.0459965
0.0464739
0.041622
0.0560382
0.0320696
0.0575364
0.0262325
0.0509421
0.0426898
0.0407968
0.050459
0.0562147
0.0560341
0.0547648
0.0468284
0.0558019
0.0493811
0.0433401
0.0517986
0.0534861
0.056026
0.0469209
0.0427606
0.0557439
0.0492252
0.0188964
0.0562038
0.056092
0.0481013
0.0557074
0.0558317
0.0571386
0.041874
0.0487241
0.0395827
0.0562118
0.0539896
0.0551611
0.0476273
0.0555275
0.0426014
0.051836
0.0438938
0.0554261
0.0539755
0.0321745
0.0474349
0.0489166
0.0543976
0.0559343
0.0480921
0.0554091
0.038191
0.0399917
0.0255002
0.0549184
0.0569299
0.0555332
0.0432426
0.0472958
0.0507787
0.0526569
0.0507947
0.0549417
0.0519345
0.0544273
0.0575389
0.0562953
0.0527471
0.0585181
0.0563574
0.043991
0.0571638
0.0339341
0.0487093
0.0563862
0.0579639
0.0499784
0.051051
0.0525391
0.0550972
0.0576656
0.0535722
0.0540474
0.0536506
0.0512244
0.056483
0.0417233
0.0546418
0.0493619
0.0401534
0.0497853
0.0487181
0.048671
0.0555308
0.0379344
0.0516688
0.0541012
0.0437942
0.0552678
0.0561789
0.0519699
0.050035
0.0537181
0.049376
0.0457512
0.0566716
0.056197
0.05428
0.0556518
0.0573838
0.0509304
0.0438173
0.0544124
0.0392081
0.0553233
0.0553436
0.0516722
0.0533784
0.0575754
0.0494894
0.053683
0.0521961
0.0568514
0.0473406
0.0572091
0.0481105
0.0512613
0.0555115
0.0557292
0.0525047
0.0531903
0.0548894
0.0553141
0.0518543
0.0502188
0.0526968
0.0554109
0.0541744
0.057346
0.0421597
0.0536511
0.0540118
0.0578103
0.0563549
0.0571714
0.0555236
0.0550719
0.0518531
0.0533506
0.0564468
0.0561299
0.0429954
0.0514085
0.0377595
0.0542533
0.0561897
0.0513488
0.0533266
0.056576
0.0558231
0.0573017
0.0550813
0.0498858
0.0551225
0.0550874
0.0522894
0.0454986
0.0530395
0.0556317
0.0543473
0.0561068
0.0570868
0.0566907
0.0506847
0.0471445
0.0507499
0.053365
0.0513023
0.0516612
0.0543944
0.0525603
0.0537289
0.0534051
0.043198
0.0549998
0.0528121
0.0475491
0.0445415
0.0521183
0.0532873
0.0532309
0.0539047
0.0549197
0.0568193
0.0542538
0.0490799
0.0504043
0.0551682
0.0547732
0.0538187
0.0548305
0.0556876
0.0542516
0.0533137
0.0536038
0.053605
0.0535083
0.0524512
0.047264
0.0528998
0.054331
0.0417984
0.0548281
0.0435256
0.0517566
0.0570514
0.0572532
0.0517652
0.0536689
0.0569261
0.0545473
0.0530224
0.0548742
0.05115
0.0548094
0.0539253
0.0389607
0.0563074
0.0538819
0.0535185
0.0552504
0.051963
0.0548366
0.0505371
0.0540053
0.0561327
0.0541383
0.056754
0.0546506
0.0528275
0.054288
0.0363089
0.0518121
0.0538282
0.056398
0.0547687
0.0584292
0.0549555
0.0543111
0.040187
0.0560463
0.0517392
0.0467858
0.0541356
0.0532183
0.0473733
0.055856
0.0505202
0.0537316
0.053447
0.0558423
0.0540241
0.0572814
0.0538404
0.0551209
0.0505495
0.0442111
0.0456954
0.0508092
0.0564923
0.0567402
0.055098
0.0538356
0.0521886
0.0501544
0.0542965
0.0551247
0.0493053
0.0542625
0.0553223
0.0543498
0.0582882
0.0542394
0.054211
0.0428114
0.0541197
0.0500631
0.05451
0.0565676
0.0546139
0.0546418
0.0541016
0.0539379
0.0540261
0.0558088
0.0540667
0.055318
0.0545852
0.0463997
0.0540922
0.0546061
0.0589884
0.0509974
0.0543456
0.0545988
0.0540575
0.0553242
0.0539733
0.0542799
0.052854
0.0543166
0.0491981
0.0563815
0.0545655
0.04578
0.0540525
0.0552257
0.0540892
0.0541712
0.0541459
0.0556097
0.0466547
0.0566707
0.0557245
0.056353
0.0517243
0.055378
0.0535864
0.0544881
0.0560014
0.0559236
0.054817
0.0546763
0.0542137
0.0520134
0.0545228
0.046291
0.0561116
0.0543955
0.0549252
0.05229
0.0545403
0.0543487
0.0539517
0.0557248
0.0544857
0.0520508
0.054177
0.0541884
0.0552768
0.0538653
0.0544294
0.0425741
0.050931
0.0544518
0.0544385
0.0542831
0.0561673
0.0540618
0.0539807
0.0538654
0.0544025
0.0469709
0.054225
0.0501415
0.0544039
0.0538561
0.0556474
0.0430021
0.0501963
0.0549048
0.0553224
0.0545369
0.055284
0.0173237
0.0180477
0.0440702
0.0479792
0.0559931
0.0543747
0.0545091
0.0499594
0.05417
0.0546456
0.0542344
0.054496
0.0544756
0.0547836
0.053715
0.0518242
0.0543553
0.0550413
0.0222223
0.0520387
0.0357859
0.0540269
0.0545366
0.0539699
0.0559405
0.0541803
0.0538813
0.0515579
0.0458382
0.0493819
0.0510904
0.0421511
0.0463802
0.04776
0.0547975
0.0484708
0.0543342
0.0550258
0.0548797
0.0541091
0.0545097
0.0541976
0.0539908
0.0542957
0.0542603
0.0549737
0.054255
0.0523496
0.0542242
0.0436746
0.0557102
0.0539344
0.054146
0.0543539
0.0542133
0.0535883
0.0524717
0.0520947
0.0419027
0.0526677
0.0442176
0.055311
0.054288
0.0555233
0.0523067
0.0544667
0.0533845
0.0555902
0.0541977
0.0539329
0.0546018
0.0557533
0.0485223
0.0542497
0.0534656
0.0474907
0.0485974
0.0540684
0.0407249
0.0523086
0.0554
0.0446667
0.054887
0.0541933
0.0538833
0.0431781
0.0556014
0.0522765
0.0260174
0.0535062
0.0543884
0.0545586
0.053337
0.0539719
0.0533726
0.0530657
0.0515804
0.0553312
0.0536217
0.0542842
0.0555254
0.0538084
0.0544091
0.0541753
0.054359
0.0550239
0.0518557
0.0535159
0.0540225
0.0538404
0.0539957
0.0512417
0.0544078
0.0544704
0.0219046
0.0517324
0.0275522
0.0540635
0.0539155
0.0283126
0.0530062
0.0540454
0.0536998
0.0546238
0.0531743
0.0519281
0.0541468
0.0540045
0.0515944
0.0549408
0.0540508
0.0527671
0.0534929
0.0505684
0.0442898
0.0543776
0.0552624
0.054028
0.0472496
0.0528841
0.054037
0.051457
0.0538311
0.0540508
0.0542159
0.054125
0.0532475
0.0525855
0.0526913
0.053447
0.0397695
0.0513224
0.0533429
0.0218395
0.0540687
0.0395839
0.0532727
0.0545313
0.0447429
0.0536973
0.0536937
0.0540213
0.0507712
0.0541267
0.0542601
0.0533772
0.0512576
0.0378774
0.0549028
0.0553249
0.0553583
0.0552296
0.0546742
0.0525832
0.055041
0.0540171
0.0407595
0.0532562
0.0436833
0.0537508
0.0535549
0.0552095
0.0529207
0.0538278
0.0551514
0.0538205
0.0387169
0.0551372
0.0324871
0.0459901
0.0540082
0.0532136
0.0536886
0.0532076
0.0455935
0.0411231
0.0549634
0.0532797
0.0484508
0.0541096
0.0539559
0.0506703
0.0520763
0.052755
0.0538698
0.05313
0.054593
0.0535543
0.0520128
0.053884
0.0466345
0.0542018
0.0521534
0.0538501
0.0539904
0.0459629
0.0390485
0.0536855
0.0511065
0.0286245
0.0538627
0.0530214
0.053871
0.0535617
0.0547073
0.0514865
0.0534221
0.0328554
0.0522519
0.0541288
0.0337109
0.0523046
0.0156926
0.0535858
0.0542802
0.051554
0.0506364
0.0523132
0.0534862
0.0500538
0.0538701
0.0549701
0.0531492
0.0535944
0.0509703
0.0455034
0.05233
0.0427552
0.0535534
0.0549493
0.0374783
0.0535823
0.0536635
0.0540273
0.0374701
0.0546258
0.0536657
0.0512419
0.0523111
0.0534216
0.0539129
0.0528834
0.043574
0.0387721
0.0515239
0.0484961
0.0538538
0.0498996
0.0522579
0.0516599
0.0440956
0.0512548
0.0540608
0.05405
0.0534597
0.0533006
0.0524007
0.0508418
0.0541435
0.0517411
0.0483185
0.0547107
0.0517526
0.0548842
0.0444881
0.0521679
0.0526855
0.0543178
0.0537328
0.0547858
0.0538304
0.0537238
0.0537115
0.0517682
0.0530116
0.0549652
0.0546053
0.0549928
0.0218372
0.0442468
0.044578
0.0537333
0.0517476
0.0537928
0.0573074
0.0534541
0.0472684
0.0505955
0.0533475
0.0539713
0.0430952
0.0454793
0.0516812
0.0518114
0.0514821
0.0527363
0.0508653
0.0546304
0.0549054
0.053861
0.0542052
0.0532964
0.050182
0.0534623
0.0534298
0.0537183
0.0515684
0.0548545
0.0529429
0.0520415
0.0579145
0.0512172
0.0531881
0.0547982
0.0537427
0.0492355
0.053534
0.0502205
0.0494175
0.0366842
0.0529052
0.0434554
0.0546781
0.0528837
0.0492067
0.0494586
0.0543273
0.0503883
0.0514141
0.0495606
0.0535355
0.0536695
0.0282915
0.0536749
0.0496479
0.0526046
0.0403991
0.0535977
0.0496829
0.0402769
0.0501916
0.0490439
0.0433433
0.0535785
0.0542135
0.0534291
0.0496634
0.0536193
0.0331983
0.0349071
0.0518768
0.0535846
0.0545997
0.058035
0.0536201
0.0517173
0.0481137
0.0495864
0.0482265
0.028179
0.05318
0.0344413
0.0479094
0.0533228
0.0536366
0.0530824
0.051941
0.0535659
0.018915
0.0218623
0.0520756
0.0517664
0.051225
0.054553
0.0482715
0.0527635
0.0533518
0.04963
0.053683
0.0544604
0.0536134
0.0376341
0.0535452
0.0483625
0.0254133
0.042215
0.053432
0.0534776
0.0543031
0.0483854
0.0479094
0.0524823
0.0531184
0.0500313
0.0448936
0.0483377
0.0534676
0.02368
0.0424415
0.0474365
0.0494542
0.0274013
0.0517115
0.0482189
0.0269569
0.0230327
0.0534956
0.0488115
0.0541846
0.0533491
0.0545246
0.0546361
0.0519629
0.0533776
0.0515105
0.0534616
0.053424
0.0245373
0.0278376
0.0510383
0.0200208
0.0487193
0.0534519
0.0422523
0.048036
0.0546056
0.0475725
0.0465774
0.0496043
0.0538291
0.0534452
0.0534208
0.0376533
0.057752
0.0533935
0.0533091
0.0460947
0.0536503
0.0468906
0.0533163
0.0432638
0.0278947
0.0492617
0.0530763
0.0526377
0.0280651
0.0435076
0.0529828
0.0357491
0.0221609
0.0523203
0.0436053
0.0523716
0.0436941
0.0467062
0.05321
0.0542395
0.0533708
0.0429972
0.0532698
0.0438204
0.0515597
0.045813
0.0408126
0.0522829
0.0438787
0.0544003
0.0506581
0.0534288
0.0343016
0.0490403
0.0522723
0.0477998
0.0534045
0.0176134
0.0152917
0.0532266
0.0508727
0.0438626
0.0515882
0.054116
0.0507069
0.0454047
0.0345275
0.0279962
0.0529434
0.0490174
0.0532547
0.0541221
0.0517994
0.0517039
0.0518016
0.042876
0.0531009
0.0404275
0.0544748
0.0524695
0.0531572
0.0441511
0.0416889
0.0535751
0.0437711
0.0532944
0.0406509
0.0296541
0.0533142
0.0408026
0.0519738
0.0408742
0.0523892
0.0238578
0.0501368
0.041758
0.034773
0.0532453
0.0524404
0.0408613
0.0239541
0.0427509
0.0475179
0.0453586
0.041303
0.0407656
0.0401914
0.0541957
0.052518
0.0488062
0.047642
0.0407602
0.0419002
0.0513945
0.0533391
0.0522585
0.0417573
0.0483549
0.0429285
0.0523193
0.0492315
0.0274949
0.051969
0.0269653
0.0528884
0.0521684
0.0530415
0.0507282
0.0496695
0.0405961
0.0519163
0.0430028
0.0529853
0.0443099
0.0492542
0.0516852
0.0531454
0.0436008
0.0373254
0.052978
0.0488027
0.0422242
0.0541242
0.0496694
0.0397571
0.0518423
0.0307784
0.040078
0.0491178
0.0585582
0.0255886
0.0472703
0.0472806
0.0527289
0.0585637
0.0400299
0.0485887
0.0528656
0.0258008
0.0481757
0.0496692
0.0485699
0.0403656
0.0531553
0.0280424
0.0480408
0.053129
0.0380287
0.0522342
0.0539958
0.0385961
0.0531122
0.0531236
0.0484548
0.0503007
0.0487732
0.0534542
0.0230548
0.0251076
0.0490467
0.0390739
0.0435473
0.0231951
0.0529209
0.0485493
0.0335414
0.0517504
0.0432861
0.0481251
0.0542288
0.0344065
0.0257524
0.0434291
0.0489119
0.0248755
0.021003
0.0193343
0.0430442
0.0443906
0.0409454
0.0407107
0.0512293
0.0520136
0.0521464
0.0496471
0.0515023
0.0527418
0.0208525
0.0529662
0.0194923
0.0225118
0.0532027
0.0479032
0.0403248
0.0261093
0.0523997
0.0373288
0.0505811
0.0246766
0.0388723
0.0250307
0.0521378
0.0270873
0.0443304
0.0359846
0.0253871
0.0539417
0.0303023
0.0485075
0.0485634
0.0228766
0.0257256
0.0435125
0.0260627
0.0490199
0.0345929
0.0264043
0.0400227
0.0380029
0.041047
0.0415808
0.032564
0.0260914
0.0267556
0.0528649
0.0458165
0.0516442
0.0527774
0.0429609
0.0470837
0.0425672
0.0520323
0.0499233
0.052784
0.0246958
0.0428628
0.0341209
0.0496009
0.0503296
0.0529449
0.0461253
0.034876
0.0223856
0.0396361
0.0271206
0.054175
0.0536976
0.0526072
0.0429769
0.0484388
0.0363478
0.0435646
0.0515272
0.0252834
0.0491745
0.0486592
0.0365637
0.0234681
0.0424081
0.0410362
0.0422214
0.0476055
0.051917
0.0242231
0.0526609
0.0510674
0.023922
0.0495339
0.0538043
0.0219964
0.0406682
0.0523722
0.05127
0.0274882
0.0405364
0.0522678
0.0504324
0.0237029
0.0525911
0.0396708
0.0407196
0.0514005
0.0204364
0.0526113
0.0398445
0.0520139
0.0532711
0.0524344
0.040165
0.0404256
0.0518099
0.0361185
0.0530053
0.0346579
0.0483461
0.0270349
0.0266541
0.0250961
0.0236454
0.0483261
0.0288959
0.0522312
0.0435825
0.0359893
0.0266216
0.0215394
0.0428596
0.0517809
0.0526888
0.0537298
0.0396192
0.049086
0.0500951
0.0234754
0.0494494
0.0391908
0.0515852
0.052047
0.0409821
0.0521421
0.0468896
0.0411262
0.0432411
0.0274934
0.0512589
0.0518205
0.0438647
0.0508975
0.033756
0.0202394
0.0418686
0.0219716
0.0203921
0.0493479
0.0204592
0.0510767
0.0483676
0.0203888
0.0482337
0.025272
0.0201621
0.0512204
0.0440826
0.0231765
0.019755
0.0191495
0.0502643
0.0505923
0.0507768
0.0472707
0.0426229
0.0515225
0.0397472
0.0506646
0.0264867
0.0246906
0.0183433
0.0481008
0.0435717
0.0492212
0.0241677
0.0514265
0.0268351
0.0257081
0.0506486
0.049035
0.0248008
0.0225123
0.0425093
0.0320706
0.0173598
0.0237881
0.0481046
0.020631
0.0416658
0.0504251
0.0486902
0.0486231
0.0500326
0.0202051
0.0197243
0.0408945
0.0479563
0.0192973
0.0509712
0.0268364
0.0501618
0.0394088
0.0248592
0.0182494
0.0212332
0.0254042
0.0420715
0.0413122
0.0515354
0.047475
0.0477685
0.0535119
0.0415522
0.0478793
0.0529985
0.0501187
0.0188232
0.0525906
0.0438152
0.0466952
0.0193185
0.0517307
0.016235
0.0527201
0.0509396
0.0193
0.0209291
0.0494523
0.0496176
0.047946
0.0432584
0.0212122
0.0433944
0.0222398
0.02593
0.0228718
0.0469021
0.0511542
0.0480061
0.0476053
0.0519191
0.0429937
0.0235655
0.0464881
0.0183581
0.0202207
0.0405814
0.0182201
0.0435365
0.0261033
0.0488005
0.0530479
0.0422963
0.0468755
0.0434788
0.0415132
0.0302493
0.0523032
0.0158864
0.0173682
0.0486475
0.0213876
0.0195571
0.0506121
0.0400636
0.0403161
0.0233104
0.047089
0.0209819
0.0255085
0.0505698
0.0529918
0.0223776
0.026439
0.0462183
0.0217825
0.0536371
0.0424043
0.0179837
0.0462968
0.0393328
0.0456625
0.0253868
0.0420023
0.0516673
0.0130233
0.0156286
0.0500146
0.029167
0.0407813
0.0497996
0.0475806
0.0505533
0.0396134
0.0404962
0.0210979
0.0481376
0.047527
0.0458025
0.0505214
0.0458721
0.040875
0.0243711
0.019071
0.0410606
0.0519069
0.0428922
0.0365106
0.0351696
0.0258678
0.0206731
0.0468717
0.0411097
0.0259308
0.0492201
0.0260222
0.0164826
0.0386709
0.0430024
0.0449082
0.0417287
0.0224139
0.0224479
0.0391598
0.0264433
0.025781
0.0259029
0.0381239
0.0375896
0.0428055
0.0459459
0.0414469
0.0194999
0.0160954
0.0463716
0.0366208
0.0455722
0.0234194
0.0208835
0.0456989
0.0483939
0.0406478
0.0456803
0.0386914
0.0409339
0.047976
0.0256026
0.0220781
0.0409947
0.0241963
0.0389251
0.0183784
0.0393799
0.0189094
0.0256019
0.0203021
0.0445124
0.0219214
0.0447805
0.0260507
0.0399887
0.0388864
0.0178026
0.0245786
0.0376103
0.0249429
0.024618
0.0168303
0.0405979
0.0180806
0.039917
0.017114
0.0322572
0.0434566
0.0365429
0.0212679
0.0204249
0.0232888
0.0231284
0.0256916
0.0250156
0.0194109
0.0161274
0.0372317
0.0389927
0.0419237
0.0384029
0.0198307
0.0143409
0.0215847
0.0320209
0.0376688
0.03551
0.0380334
0.0383461
0.0412999
0.0373301
0.0173589
0.0228299
0.0357252
0.0209804
0.0214688
0.0164246
0.0201772
0.0313712
0.0336493
0.0123439
0.0127132
0.00980403
0.00895988
0.0148325
0.013151
0.0165289
0.0243995
0.0198783
0.0245011
0.0167182
0.0168595
0.024147
0.0161936
0.0167632
0.0254061
0.0225864
0.0189387
0.0206767
0.0179622
0.022141
0.0196102
0.0229038
0.0134971
0.00945862
0.00972814
0.0207621
0.0141706
0.015562
0.0233376
0.020085
0.0305544
0.0585426
0.0354739
0.0376481
0.0367242
0.0246123
0.0155817
0.0490362
0.0473936
0.0468495
0.00975804
0.031528
0.0518339
0.0421981
0.0309219
0.0214873
0.0228766
0.0588366
0.0488072
0.0288611
0.0106233
0.0301552
0.0527351
0.0261828
0.0505242
0.0486878
0.03323
0.045213
0.0359772
0.0507967
0.013553
0.0136302
0.0307646
0.0243062
0.0346244
0.0232533
0.0284749
0.0260829
0.0495572
0.0337676
0.047106
0.0257701
0.0205087
0.0231541
0.0359143
0.0388752
0.05346
0.0275514
0.0353907
0.0373933
0.048796
0.0501896
0.0365522
0.0407212
0.0587209
0.0315597
0.0260532
0.0225915
0.0202067
0.0332984
0.0244649
0.0340406
0.0279859
0.0239698
0.0258422
0.0148759
0.0138398
0.0474563
0.0397811
0.0296999
0.0587008
0.0235204
0.026177
0.0383904
0.0314994
0.0337911
0.029143
0.043699
0.0340447
0.0346539
0.0497775
0.0187235
0.0289533
0.0350338
0.0355284
0.031978
0.0563484
0.0363607
0.0445164
0.0165031
0.0402426
0.0544461
0.0384491
0.0291422
0.0212836
0.0510799
0.0478044
0.0533287
0.0259169
0.0299511
0.0175905
0.0484283
0.0560704
0.0281986
0.0560885
0.0501492
0.022406
0.0504678
0.0546743
0.0382211
0.0522969
0.0405822
0.0249387
0.0272066
0.021244
0.0518971
0.0221179
0.0225642
0.0529968
)
;

boundaryField
{
    patch0
    {
        type            kqRWallFunction;
        value           nonuniform List<scalar> 
4010
(
0.0547873
0.0547873
0.0570508
0.0570508
0.0588502
0.0588502
0.0588171
0.0588171
0.0571042
0.0571042
0.0576622
0.0576622
0.0574944
0.0574944
0.0547808
0.0547808
0.0543139
0.0543139
0.0593098
0.0593098
0.0513032
0.0513032
0.0508475
0.0508475
0.0368226
0.0368226
0.0491331
0.0491331
0.0558352
0.0558352
0.0556548
0.0556548
0.0377329
0.0377329
0.0493457
0.0493457
0.0514849
0.0514849
0.0497594
0.0497594
0.028256
0.028256
0.0464975
0.0464975
0.048262
0.048262
0.0511325
0.0511325
0.0467425
0.0467425
0.0446148
0.0446148
0.0442125
0.0442125
0.0587919
0.0587919
0.0550468
0.0550468
0.0558791
0.0558791
0.046367
0.046367
0.0459268
0.0459268
0.0514898
0.0514898
0.0420882
0.0420882
0.0590831
0.0590831
0.0507028
0.0507028
0.0432602
0.0432602
0.0568429
0.0568429
0.0536917
0.0536917
0.0429276
0.0429276
0.0432107
0.0432107
0.0315359
0.0315359
0.043858
0.043858
0.0473886
0.0473886
0.0560628
0.0560628
0.0482403
0.0482403
0.0534519
0.0534519
0.0589711
0.0589711
0.0250934
0.0250934
0.0247519
0.0247519
0.0531765
0.0531765
0.0324445
0.0324445
0.0470154
0.0470154
0.0519857
0.0519857
0.0365745
0.0365745
0.059433
0.059433
0.0512347
0.0512347
0.0582633
0.0582633
0.0580476
0.0580476
0.0539195
0.0539195
0.0513095
0.0513095
0.0550137
0.0550137
0.0509117
0.0509117
0.052192
0.052192
0.0501991
0.0501991
0.0592412
0.0592412
0.0543577
0.0543577
0.0508436
0.0508436
0.0518272
0.0518272
0.0527148
0.0527148
0.027089
0.027089
0.0548479
0.0548479
0.0520018
0.0520018
0.0568779
0.0568779
0.056669
0.056669
0.0402006
0.0402006
0.0591871
0.0591871
0.0574217
0.0574217
0.0588558
0.0588558
0.0529449
0.0529449
0.0576241
0.0576241
0.0459089
0.0459089
0.0544502
0.0544502
0.0276785
0.0276785
0.0527337
0.0527337
0.052059
0.052059
0.0590752
0.0590752
0.0549976
0.0549976
0.0241833
0.0241833
0.0260879
0.0260879
0.0534147
0.0534147
0.0475528
0.0475528
0.0419994
0.0419994
0.0413748
0.0413748
0.0284897
0.0284897
0.0460519
0.0460519
0.0589915
0.0589915
0.0566356
0.0566356
0.0529212
0.0529212
0.0361615
0.0361615
0.0580803
0.0580803
0.0285801
0.0285801
0.0521537
0.0521537
0.0497847
0.0497847
0.0418813
0.0418813
0.0583056
0.0583056
0.0542485
0.0542485
0.0425488
0.0425488
0.0543077
0.0543077
0.0427995
0.0427995
0.0584842
0.0584842
0.0514941
0.0514941
0.0580846
0.0580846
0.0559623
0.0559623
0.0588684
0.0588684
0.0248996
0.0248996
0.0585657
0.0585657
0.0560678
0.0560678
0.0539254
0.0539254
0.0590452
0.0590452
0.0480196
0.0480196
0.0295552
0.0295552
0.0275311
0.0275311
0.0244615
0.0244615
0.0550931
0.0550931
0.0443864
0.0443864
0.0407042
0.0407042
0.0571123
0.0571123
0.0471975
0.0471975
0.0375822
0.0375822
0.0583106
0.0583106
0.0566544
0.0566544
0.0352143
0.0352143
0.0559977
0.0559977
0.0314713
0.0314713
0.0441312
0.0441312
0.0568221
0.0568221
0.0545451
0.0545451
0.0520032
0.0520032
0.058749
0.058749
0.0593525
0.0593525
0.0539939
0.0539939
0.0392646
0.0392646
0.0392646
0.0361759
0.0361759
0.0361759
0.0579518
0.0579518
0.0462617
0.0462617
0.0428146
0.0428146
0.0307453
0.0307453
0.0546963
0.0546963
0.0544155
0.0544155
0.0520294
0.0520294
0.0298031
0.0298031
0.0298031
0.0346009
0.0346009
0.0563505
0.0563505
0.0575044
0.0575044
0.0452342
0.0452342
0.0293018
0.0293018
0.0583756
0.0583756
0.057436
0.057436
0.0461058
0.0461058
0.0564749
0.0564749
0.0399031
0.0399031
0.0574079
0.0574079
0.0306173
0.0306173
0.050871
0.050871
0.0444232
0.0444232
0.0462332
0.0462332
0.0287385
0.0287385
0.0589128
0.0589128
0.0472841
0.0472841
0.0522355
0.0522355
0.0563676
0.0563676
0.058068
0.058068
0.0513171
0.0513171
0.0594031
0.0594031
0.0370854
0.0370854
0.0557655
0.0557655
0.0237624
0.0237624
0.0528774
0.0528774
0.0571151
0.0571151
0.0418645
0.0418645
0.0561028
0.0561028
0.0582526
0.0582526
0.0464211
0.0464211
0.0246301
0.0246301
0.0560513
0.0560513
0.0352107
0.0352107
0.0442291
0.0442291
0.0586698
0.0586698
0.0574775
0.0574775
0.0400175
0.0400175
0.0548327
0.0548327
0.0572279
0.0572279
0.0565333
0.0565333
0.0480619
0.0480619
0.0309086
0.0309086
0.0309086
0.0476545
0.0476545
0.0376151
0.0376151
0.0403128
0.0403128
0.0366392
0.0366392
0.0400843
0.0400843
0.0577096
0.0577096
0.0470412
0.0470412
0.0537754
0.0537754
0.0551588
0.0551588
0.0419552
0.0419552
0.0562849
0.0562849
0.0325548
0.0325548
0.0316606
0.0316606
0.0292638
0.0292638
0.0292638
0.0317904
0.0317904
0.0510221
0.0510221
0.0539139
0.0539139
0.048045
0.048045
0.0446437
0.0446437
0.0582045
0.0582045
0.054705
0.054705
0.0415129
0.0415129
0.0546264
0.0546264
0.0565658
0.0565658
0.0448929
0.0448929
0.0540168
0.0540168
0.047136
0.047136
0.0544094
0.0544094
0.0514566
0.0514566
0.0472654
0.0472654
0.0558988
0.0558988
0.0581989
0.0581989
0.0498834
0.0498834
0.0372136
0.0372136
0.0338858
0.0338858
0.0534636
0.0534636
0.0402802
0.0402802
0.0328656
0.0328656
0.0489386
0.0489386
0.0221645
0.0221645
0.0221645
0.0546124
0.0546124
0.0544549
0.0544549
0.0502119
0.0502119
0.0320589
0.0320589
0.0320589
0.0558009
0.0558009
0.0397831
0.0397831
0.0542499
0.0542499
0.0331952
0.0331952
0.0472982
0.0472982
0.0297258
0.0297258
0.0508682
0.0508682
0.0591658
0.0591658
0.0581156
0.0581156
0.0581125
0.0581125
0.056648
0.056648
0.0330141
0.0330141
0.0497914
0.0497914
0.0508039
0.0508039
0.0585401
0.0585401
0.055332
0.055332
0.045588
0.045588
0.0401821
0.0401821
0.0452124
0.0452124
0.0525401
0.0525401
0.0463115
0.0463115
0.0500416
0.0500416
0.0522863
0.0522863
0.0584176
0.0584176
0.0463372
0.0463372
0.0550323
0.0550323
0.0348814
0.0348814
0.057434
0.057434
0.03876
0.03876
0.0390131
0.0390131
0.0391424
0.0391424
0.0533339
0.0533339
0.0485072
0.0485072
0.0410438
0.0410438
0.05408
0.05408
0.0574366
0.0574366
0.0492623
0.0492623
0.048622
0.048622
0.053926
0.053926
0.0382974
0.0382974
0.0398048
0.0398048
0.0333124
0.0333124
0.0333124
0.0530349
0.0530349
0.0514166
0.0514166
0.0474045
0.0474045
0.0576558
0.0576558
0.0557408
0.0557408
0.0352321
0.0352321
0.0523851
0.0523851
0.0400637
0.0400637
0.0525636
0.0525636
0.0529787
0.0529787
0.0497271
0.0497271
0.0555955
0.0555955
0.0238906
0.0238906
0.0518014
0.0518014
0.055509
0.055509
0.0341496
0.0341496
0.056761
0.056761
0.0557343
0.0557343
0.0358074
0.0358074
0.0358074
0.0535813
0.0535813
0.0551572
0.0551572
0.0546343
0.0546343
0.0495215
0.0495215
0.0421706
0.0421706
0.0391824
0.0391824
0.055144
0.055144
0.0406122
0.0406122
0.056552
0.056552
0.0312266
0.0312266
0.0544779
0.0544779
0.0512109
0.0512109
0.0491254
0.0491254
0.0580771
0.0580771
0.0396427
0.0396427
0.0458819
0.0458819
0.0509996
0.0509996
0.0522413
0.0522413
0.0473563
0.0473563
0.0545086
0.0545086
0.0398347
0.0398347
0.0557342
0.0557342
0.0537119
0.0537119
0.0435583
0.0435583
0.0579067
0.0579067
0.0417266
0.0417266
0.0413333
0.0413333
0.0589305
0.0589305
0.0544151
0.0544151
0.0386631
0.0386631
0.0551909
0.0551909
0.0504472
0.0504472
0.0500395
0.0500395
0.0549005
0.0549005
0.049612
0.049612
0.0545418
0.0545418
0.0537959
0.0537959
0.0521234
0.0521234
0.0553183
0.0553183
0.0579618
0.0579618
0.054976
0.054976
0.0480476
0.0480476
0.0349647
0.0349647
0.0561002
0.0561002
0.0557626
0.0557626
0.0371144
0.0371144
0.05555
0.05555
0.0543253
0.0543253
0.0424175
0.0424175
0.0459965
0.0459965
0.0464739
0.0464739
0.041622
0.041622
0.0560382
0.0560382
0.0320696
0.0320696
0.0575364
0.0575364
0.0262325
0.0262325
0.0509421
0.0509421
0.0426898
0.0426898
0.0407968
0.0407968
0.050459
0.050459
0.0562147
0.0562147
0.0560341
0.0560341
0.0547648
0.0547648
0.0468284
0.0468284
0.0558019
0.0558019
0.0493811
0.0493811
0.0433401
0.0433401
0.0517986
0.0517986
0.0534861
0.0534861
0.056026
0.056026
0.0469209
0.0469209
0.0427606
0.0427606
0.0557439
0.0557439
0.0492252
0.0492252
0.0188964
0.0188964
0.0562038
0.0562038
0.056092
0.056092
0.0481013
0.0481013
0.0557074
0.0557074
0.0558317
0.0558317
0.0571386
0.0571386
0.041874
0.041874
0.0487241
0.0487241
0.0395827
0.0395827
0.0562118
0.0562118
0.0539896
0.0539896
0.0551611
0.0551611
0.0476273
0.0476273
0.0555275
0.0555275
0.0426014
0.0426014
0.051836
0.051836
0.0438938
0.0438938
0.0554261
0.0554261
0.0539755
0.0539755
0.0321745
0.0321745
0.0321745
0.0474349
0.0474349
0.0489166
0.0489166
0.0543976
0.0543976
0.0559343
0.0559343
0.0480921
0.0480921
0.0554091
0.0554091
0.038191
0.038191
0.0399917
0.0399917
0.0255002
0.0255002
0.0255002
0.0549184
0.0549184
0.0569299
0.0569299
0.0555332
0.0555332
0.0432426
0.0432426
0.0472958
0.0472958
0.0507787
0.0507787
0.0526569
0.0526569
0.0507947
0.0507947
0.0549417
0.0549417
0.0519345
0.0519345
0.0544273
0.0544273
0.0575389
0.0575389
0.0562953
0.0562953
0.0527471
0.0527471
0.0585181
0.0585181
0.0563574
0.0563574
0.043991
0.043991
0.0571638
0.0571638
0.0339341
0.0339341
0.0487093
0.0487093
0.0563862
0.0563862
0.0579639
0.0579639
0.0499784
0.0499784
0.051051
0.051051
0.0525391
0.0525391
0.0550972
0.0550972
0.0576656
0.0576656
0.0535722
0.0535722
0.0540474
0.0540474
0.0536506
0.0536506
0.0512244
0.0512244
0.056483
0.056483
0.0417233
0.0417233
0.0546418
0.0546418
0.0493619
0.0493619
0.0401534
0.0401534
0.0497853
0.0497853
0.0487181
0.0487181
0.048671
0.048671
0.0555308
0.0555308
0.0379344
0.0379344
0.0379344
0.0516688
0.0516688
0.0541012
0.0541012
0.0437942
0.0437942
0.0552678
0.0552678
0.0561789
0.0561789
0.0519699
0.0519699
0.050035
0.050035
0.0537181
0.0537181
0.049376
0.049376
0.0457512
0.0457512
0.0566716
0.0566716
0.056197
0.056197
0.05428
0.05428
0.0556518
0.0556518
0.0573838
0.0573838
0.0509304
0.0509304
0.0438173
0.0438173
0.0544124
0.0544124
0.0392081
0.0392081
0.0553233
0.0553233
0.0553436
0.0553436
0.0516722
0.0516722
0.0533784
0.0533784
0.0575754
0.0575754
0.0494894
0.0494894
0.053683
0.053683
0.0521961
0.0521961
0.0568514
0.0568514
0.0473406
0.0473406
0.0572091
0.0572091
0.0481105
0.0481105
0.0512613
0.0512613
0.0555115
0.0555115
0.0557292
0.0557292
0.0525047
0.0525047
0.0531903
0.0531903
0.0548894
0.0548894
0.0553141
0.0553141
0.0518543
0.0518543
0.0502188
0.0502188
0.0526968
0.0526968
0.0554109
0.0554109
0.0541744
0.0541744
0.057346
0.057346
0.0421597
0.0421597
0.0536511
0.0536511
0.0540118
0.0540118
0.0578103
0.0578103
0.0563549
0.0563549
0.0571714
0.0571714
0.0555236
0.0555236
0.0550719
0.0550719
0.0518531
0.0518531
0.0533506
0.0533506
0.0564468
0.0564468
0.0561299
0.0561299
0.0429954
0.0429954
0.0514085
0.0514085
0.0377595
0.0377595
0.0542533
0.0542533
0.0561897