/*--------------------------------*- C++ -*----------------------------------*\
  =========                 |
  \\      /  F ield         | OpenFOAM: The Open Source CFD Toolbox
   \\    /   O peration     | Website:  https://openfoam.org
    \\  /    A nd           | Version:  8
     \\/     M anipulation  |
\*---------------------------------------------------------------------------*/
FoamFile
{
    version     2.0;
    format      ascii;
    class       volScalarField;
    location    "0.3";
    object      nut;
}
// * * * * * * * * * * * * * * * * * * * * * * * * * * * * * * * * * * * * * //

dimensions      [0 2 -1 0 0 0 0];

internalField   nonuniform List<scalar> 
1924
(
0.00260193
0.00266358
0.00271549
0.00271291
0.00266515
0.0026909
0.00268385
0.00262076
0.00260312
0.00272295
0.00253521
0.00252176
0.00213199
0.00248757
0.00263784
0.00262907
0.00215778
0.00249673
0.0025267
0.00251342
0.001869
0.00240909
0.00244375
0.00254996
0.00241545
0.002349
0.00234434
0.00270818
0.00261588
0.00263545
0.00239309
0.00239323
0.00251227
0.00227766
0.00271538
0.00250638
0.00232252
0.00266526
0.00258008
0.00230081
0.00232021
0.00197375
0.0023344
0.00241787
0.0026421
0.00244588
0.00259191
0.00271105
0.0017629
0.00175032
0.00257172
0.00200209
0.00242354
0.00254323
0.0021325
0.00272361
0.00252722
0.00269443
0.00268975
0.00258096
0.00252314
0.00260436
0.00251173
0.00254787
0.00249794
0.0027174
0.00258424
0.00251213
0.00254256
0.0025599
0.00182499
0.00260182
0.00254252
0.00265746
0.0026503
0.0022149
0.002716
0.00266927
0.00270817
0.00256474
0.00267824
0.00238506
0.00260112
0.00185007
0.002544
0.00254217
0.00271386
0.00262668
0.00173001
0.00179603
0.00256016
0.00241901
0.00229302
0.00227147
0.0018777
0.00239264
0.00271248
0.00265517
0.00255266
0.00208345
0.00270048
0.00188057
0.00253074
0.00247498
0.0022851
0.00269309
0.00261221
0.00229764
0.00259364
0.0023168
0.00270108
0.00253771
0.00269219
0.00263944
0.00270822
0.00175527
0.00271116
0.00264555
0.00258963
0.00271234
0.00242567
0.000731034
0.00184455
0.00173907
0.00260875
0.00235189
0.0022377
0.00266159
0.00243934
0.000761853
0.00269659
0.00266971
0.000246446
0.00263942
0.00197232
0.00235341
0.00266967
0.00261981
0.00257485
0.00270853
0.00272021
0.00257626
0.000201719
0.000191463
0.00269945
0.00239461
0.00230556
0.00193674
0.00260723
0.00260149
0.00254208
0.00036703
0.00205977
0.00266391
0.00268957
0.00236549
0.000727925
0.00270515
0.00267653
0.000277297
0.00265162
0.00221748
0.00268883
0.000744036
0.00251503
0.00236023
0.00240399
0.000546441
0.00270905
0.00244078
0.00253602
0.00266221
0.00268734
0.00251359
0.0027224
0.00213902
0.00263444
0.000392652
0.00256161
0.00268414
0.00228291
0.00264689
0.00269119
0.00240866
0.00174673
0.00264722
0.00207917
0.00235441
0.00270405
0.00267433
0.00221859
0.00262608
0.00267106
0.00266787
0.00245973
0.000373772
0.0024368
0.00215831
0.00223708
0.00213356
0.000482937
0.0026834
0.00243647
0.00259776
0.00261422
0.0022863
0.00266324
0.00200563
0.00196943
0.000161523
0.000758159
0.00253882
0.00261336
0.00245854
0.00235409
0.0026898
0.00260981
0.00224986
0.00261909
0.00264806
0.00234486
0.00259149
0.00243801
0.00262356
0.00254225
0.00242838
0.00263945
0.00269192
0.00250967
0.00215186
0.000332902
0.00256031
0.00223896
0.000399909
0.00247037
0.000145639
0.00262796
0.0026175
0.00252434
0.000380668
0.00263932
0.00222813
0.00261692
0.00202717
0.000394764
0.00191707
0.00252564
0.00271708
0.00268727
0.00268907
0.00265898
0.000661575
0.00250662
0.00253267
0.00270074
0.00263776
0.00236922
0.00223801
0.00236208
0.00256891
0.00239755
0.00251862
0.00253516
0.00269515
0.00240184
0.00260966
0.00207724
0.00267099
0.00218901
0.000482545
0.00220434
0.0025752
0.0024484
0.00226412
0.0025773
0.00267397
0.00248783
0.00246481
0.00261186
0.00218469
0.000553194
0.000276428
0.00255203
0.00255078
0.00240956
0.00267743
0.00263553
0.000666558
0.00256856
0.00223659
0.00258658
0.00255216
0.00249193
0.00264062
0.00171806
0.00253825
0.00264149
0.00205606
0.00265346
0.00264465
0.00038533
0.00260455
0.00263201
0.00260991
0.00250138
0.00229727
0.00220323
0.00262806
0.00225063
0.00265405
0.00196576
0.00260324
0.00254653
0.00247439
0.00269009
0.0022148
0.00237892
0.00253178
0.00257628
0.0024351
0.00259502
0.00222473
0.00266011
0.00258496
0.00233418
0.00268537
0.00228173
0.00227268
0.00271281
0.00260403
0.00219588
0.00261348
0.00250632
0.00251921
0.00260674
0.00248733
0.00259736
0.002613
0.00257548
0.00265107
0.00268634
0.00261572
0.00244684
0.00208172
0.00264909
0.00263572
0.000323474
0.00262814
0.00259982
0.00230278
0.00238557
0.00036868
0.000525373
0.00264715
0.00199165
0.00267488
0.00180204
0.00253409
0.00230466
0.0022506
0.00250447
0.00265013
0.00264553
0.0026004
0.00240942
0.00265802
0.00247832
0.00231747
0.00256741
0.00260587
0.002645
0.00242397
0.00230861
0.00263732
0.0024552
0.000350227
0.00265012
0.00264759
0.00244429
0.0026351
0.00264035
0.00266411
0.00228732
0.00247032
0.00221907
0.00264752
0.00258438
0.00261554
0.00241496
0.00265243
0.000466171
0.00253564
0.00234306
0.00262623
0.00261857
0.000150371
0.00241058
0.00246195
0.00260406
0.00264132
0.00244187
0.00262038
0.00217277
0.00222504
0.000175155
0.00261167
0.00266241
0.00263172
0.00232071
0.00241245
0.00250654
0.00255696
0.00253142
0.00263569
0.00257238
0.00260548
0.00267682
0.00265019
0.00256161
0.00270273
0.00265119
0.00233658
0.00266769
0.00204793
0.00245195
0.00265179
0.00268708
0.00248222
0.00251424
0.00254359
0.00261846
0.00267966
0.00257187
0.00259186
0.00261338
0.00250646
0.00265325
0.00227757
0.0026314
0.00246666
0.00223574
0.00246339
0.00247005
0.00246009
0.00263439
0.000161945
0.00252272
0.00258746
0.00234211
0.00262404
0.002649
0.00253864
0.00251067
0.00259045
0.00245395
0.00239917
0.00265725
0.0026482
0.002598
0.0026374
0.00267223
0.00250776
0.00232428
0.00260145
0.00220256
0.00262748
0.00262984
0.0025616
0.00259983
0.0026783
0.00246744
0.00258222
0.00253834
0.00266095
0.00242569
0.00266719
0.00244433
0.00253196
0.00263469
0.00263841
0.00253846
0.00260306
0.00261442
0.00262967
0.00253334
0.00248189
0.00254254
0.00262916
0.00258973
0.00267207
0.00228716
0.00257447
0.00259091
0.00268739
0.0026504
0.00266826
0.00263501
0.00262082
0.0025176
0.0025758
0.00265242
0.00264679
0.0023105
0.00251676
0.00215884
0.00260117
0.0026471
0.00250443
0.00257239
0.00265504
0.00263208
0.00267132
0.00262201
0.00250511
0.00262419
0.00262368
0.0025413
0.00239011
0.00259449
0.00263651
0.00260018
0.00264526
0.00266591
0.00265756
0.00253045
0.00243156
0.00250228
0.0025758
0.00250466
0.00255456
0.00260144
0.0025597
0.00258315
0.00257666
0.00230852
0.00262149
0.00259521
0.00243432
0.00234306
0.00253338
0.00257037
0.00257296
0.00258945
0.0026089
0.0026603
0.00259245
0.00245262
0.00250245
0.0026258
0.00261407
0.00257746
0.00261487
0.00263681
0.00259764
0.00255958
0.00258195
0.00258123
0.0025798
0.00255364
0.00241965
0.00255437
0.00259995
0.00227446
0.00261553
0.00232645
0.00253731
0.00266438
0.00267298
0.00252708
0.00258066
0.00266277
0.00260336
0.00255033
0.00261761
0.00251442
0.00261636
0.00258928
0.00219316
0.00264901
0.00258852
0.00257495
0.00262708
0.00256467
0.00261681
0.00250619
0.00259177
0.00264543
0.00259521
0.00265833
0.00260801
0.0025478
0.00259883
0.000536807
0.002538
0.00258762
0.00265119
0.0026152
0.00269782
0.00262022
0.00259949
0.00223349
0.00264336
0.00254612
0.00240919
0.00259444
0.00257155
0.0024286
0.00263429
0.00250649
0.00258506
0.00256685
0.00263958
0.00259189
0.00267038
0.00258415
0.00262453
0.00252216
0.00233752
0.00238236
0.00251221
0.00265293
0.00265779
0.0026211
0.00258322
0.00257369
0.00248605
0.00259873
0.00262426
0.00247013
0.00259766
0.00262811
0.00259738
0.00269437
0.00259775
0.00259671
0.00230563
0.00258803
0.00249507
0.00260359
0.00265474
0.00261001
0.0026113
0.00259334
0.00258179
0.00259511
0.0026383
0.00259031
0.00262656
0.00260737
0.0024055
0.00259445
0.00261049
0.00271672
0.00253259
0.00259987
0.00261052
0.00259348
0.00262028
0.00258485
0.00259818
0.00256465
0.00259941
0.00246493
0.00264988
0.00260957
0.00238292
0.00258828
0.00262604
0.0025944
0.0025956
0.00259448
0.00262968
0.00239711
0.00265557
0.00263632
0.0026491
0.00255753
0.00262884
0.00258159
0.00260327
0.00264217
0.00264026
0.00261605
0.00261245
0.00259539
0.0025646
0.00260837
0.0023945
0.0026443
0.0026013
0.00261471
0.00254594
0.00260684
0.00260024
0.0025909
0.00263601
0.00260324
0.00253845
0.00259601
0.00259624
0.0026224
0.00258851
0.00260346
0.00229048
0.00251601
0.00260504
0.00260589
0.00259788
0.00264569
0.00259377
0.00259178
0.00258844
0.00260501
0.00241201
0.00259656
0.002484
0.00260517
0.00258836
0.00263414
0.00229041
0.00249163
0.00261778
0.00262155
0.00260467
0.0026267
0.000325745
0.000170513
0.00233941
0.00243694
0.00264105
0.00260435
0.00260394
0.00248972
0.0025966
0.00261153
0.00259835
0.00260757
0.00260631
0.00261511
0.00258474
0.00253829
0.00260381
0.00261618
0.000368611
0.00255101
0.00048765
0.00259306
0.00260466
0.00259162
0.0026398
0.00259751
0.00259122
0.00254554
0.00238325
0.00247524
0.00252541
0.00226869
0.00240034
0.00243268
0.00261523
0.00243788
0.00260318
0.00261928
0.00261373
0.00259641
0.0026041
0.00259869
0.00259252
0.00259891
0.00260086
0.00261905
0.00260044
0.0025506
0.00260033
0.00232023
0.00263498
0.00259095
0.00259746
0.00260035
0.00260006
0.00258145
0.0025502
0.00255443
0.00227781
0.00259332
0.00232573
0.00262682
0.00260191
0.00263088
0.00254954
0.00260309
0.00257667
0.00263252
0.00259957
0.00259158
0.00260665
0.00263608
0.00245745
0.00260102
0.00257894
0.00241878
0.00245504
0.00259575
0.00224465
0.00254758
0.00262851
0.00235226
0.00261708
0.00259944
0.00259006
0.00230627
0.0026321
0.00254844
0.000408194
0.00258009
0.00260124
0.00260884
0.00257547
0.00259335
0.0025759
0.0025683
0.00252995
0.00262655
0.0025825
0.00260178
0.00263039
0.00258865
0.00260506
0.0025989
0.00260054
0.0026199
0.00253743
0.00258054
0.002595
0.00259005
0.00259427
0.00251881
0.00260489
0.00260475
0.000152109
0.00254511
0.000457178
0.00259618
0.00259212
0.00187209
0.00256694
0.00259568
0.00258644
0.00261031
0.00257145
0.0025446
0.00259811
0.00259186
0.00252858
0.00261794
0.00259573
0.00256076
0.00258022
0.00250695
0.00233915
0.00260423
0.00262487
0.00259504
0.00241175
0.00256356
0.00259525
0.00252916
0.00258986
0.00259301
0.00259711
0.00259625
0.00257358
0.00255591
0.00255258
0.00257939
0.00221991
0.00252324
0.00257518
0.000430851
0.00259635
0.00221269
0.00257445
0.00260807
0.00233477
0.00258619
0.00258633
0.00259478
0.00252755
0.00259758
0.00260114
0.00257795
0.00252438
0.000513154
0.00261595
0.00262583
0.00262671
0.00262342
0.00261127
0.00255593
0.00261996
0.00259218
0.00223888
0.00257432
0.00232906
0.00258784
0.00258273
0.00262331
0.00256521
0.00258986
0.00262188
0.00258972
0.00218435
0.00262142
0.000185714
0.00239015
0.00259442
0.00257243
0.00258617
0.00257343
0.00237425
0.00225465
0.00261811
0.00257582
0.00245009
0.00259688
0.00259065
0.00250875
0.00253348
0.00255943
0.002591
0.00257179
0.00260939
0.00258266
0.00254214
0.00259118
0.00239984
0.00259938
0.00254602
0.00259039
0.00259395
0.00238395
0.000287471
0.00258678
0.00252173
0.00048114
0.00259063
0.00256931
0.00259078
0.00258089
0.00261178
0.00252827
0.00257921
0.000233216
0.0025487
0.00259766
0.000251823
0.00254877
0.000158498
0.00258144
0.00260125
0.00253093
0.00251117
0.00255054
0.00259601
0.00249393
0.00259075
0.00261762
0.00257243
0.00258358
0.00251689
0.00237213
0.0025513
0.00229923
0.00258255
0.00261742
0.00215188
0.00258312
0.00258542
0.002595
0.002152
0.00260982
0.00258541
0.00252179
0.00255117
0.00257913
0.00259198
0.00256578
0.00232287
0.00218942
0.00252991
0.00246222
0.00259032
0.00249173
0.00255015
0.00253378
0.00233507
0.00252267
0.00259603
0.00259565
0.00257816
0.002576
0.00255217
0.00251195
0.00259793
0.00253618
0.00244429
0.00261154
0.0025524
0.00261515
0.00234727
0.00254815
0.00255913
0.002602
0.00258715
0.00261307
0.00259061
0.00258686
0.00258665
0.00253725
0.00256879
0.00261707
0.00260833
0.00261782
0.00023331
0.00233863
0.0023493
0.00258712
0.00253713
0.00258879
0.00267146
0.00257912
0.0024239
0.00250536
0.00257948
0.00259366
0.00231315
0.0023766
0.00253582
0.00256052
0.00252815
0.00256192
0.00251206
0.00260958
0.00262489
0.00259074
0.00259936
0.00257575
0.00250244
0.00257997
0.00257918
0.00258672
0.00253324
0.0026145
0.00256522
0.00254496
0.00268541
0.00254958
0.00257302
0.00261308
0.0025876
0.00247218
0.00258187
0.00249561
0.00247713
0.00212854
0.00256416
0.00231866
0.00261043
0.00256541
0.00247737
0.00247864
0.00260193
0.00250196
0.00252937
0.00248126
0.00258185
0.00258553
0.000478355
0.00258576
0.00248401
0.00255845
0.000578431
0.00258352
0.00248545
0.00221422
0.0024948
0.00246682
0.00231941
0.00258298
0.00259916
0.00257899
0.00248545
0.00258453
0.000514732
0.000552144
0.00254058
0.00258317
0.00260847
0.00268834
0.00258435
0.00253471
0.00244369
0.00248387
0.00244488
0.000478731
0.00257259
0.00206785
0.00243625
0.00257627
0.00258522
0.00257019
0.0025401
0.00258337
0.000164676
0.000177138
0.00256778
0.00253508
0.00252439
0.00260697
0.00244831
0.00256221
0.00257696
0.00248038
0.00258573
0.00260506
0.00258532
0.00215647
0.00258224
0.00245126
0.000458837
0.00228722
0.00258001
0.00258104
0.00260098
0.00245246
0.00243779
0.00255524
0.00257418
0.00250044
0.00236081
0.00245179
0.00258075
0.000204978
0.00229523
0.00242374
0.00248059
0.00047787
0.00253621
0.00244912
0.000481627
0.000398551
0.00258105
0.00247041
0.00259805
0.00257812
0.00260627
0.00260892
0.00254017
0.00257839
0.00252879
0.00257989
0.00257889
0.000222553
0.000481626
0.0025195
0.000379208
0.00245933
0.00257964
0.00229653
0.0024445
0.00260805
0.00242841
0.0024016
0.00248155
0.00260317
0.0025807
0.00257895
0.00215816
0.00268146
0.0025793
0.00257707
0.00238866
0.00258455
0.00241031
0.00257602
0.00231602
0.00047499
0.00247534
0.00256979
0.00255883
0.000482887
0.00232327
0.00256751
0.00210223
0.000430462
0.00255162
0.00232325
0.0025523
0.00232907
0.00240448
0.00257444
0.00259904
0.00257774
0.00230836
0.00257553
0.00233331
0.00253219
0.00238133
0.00225339
0.00255094
0.00233568
0.00260287
0.0025074
0.00257919
0.00206196
0.0024688
0.00255009
0.00243818
0.00257976
0.000159345
0.000148026
0.00257368
0.00251508
0.00233589
0.00253121
0.00259593
0.00250835
0.00237025
0.00207014
0.000481571
0.00256949
0.00246876
0.00257436
0.00259644
0.00253933
0.0025373
0.00253921
0.00230453
0.00257154
0.00223841
0.00260482
0.00255621
0.00257255
0.00234046
0.00227423
0.00258222
0.00233376
0.00257558
0.00224539
0.000221761
0.00257597
0.00225044
0.00254445
0.00225328
0.00255414
0.000445933
0.00250309
0.00227331
0.000622041
0.0025744
0.00255548
0.0022537
0.000219872
0.00230012
0.00243061
0.00236885
0.00225994
0.00225159
0.00223085
0.00259788
0.00255559
0.00247152
0.00243085
0.00224466
0.00229373
0.00252768
0.00257644
0.00254925
0.00227293
0.00244875
0.00231023
0.00255227
0.00247367
0.000471555
0.00254428
0.00047064
0.00256497
0.002547
0.00256947
0.00251124
0.00248601
0.00224712
0.00254291
0.00230636
0.00256846
0.00234088
0.00247398
0.00253538
0.00257149
0.00232901
0.000282697
0.00256715
0.00246293
0.00228538
0.00259585
0.0024862
0.00223252
0.00254093
0.000251311
0.00222692
0.00247005
0.00270025
0.000229438
0.00242561
0.00242404
0.00256338
0.00270036
0.00222403
0.0024597
0.00256527
0.00037748
0.00244793
0.00248626
0.00245939
0.00224067
0.00257188
0.000248185
0.00244491
0.00257225
0.00216781
0.00254999
0.00259255
0.00218433
0.00257085
0.00257094
0.00245013
0.00250586
0.00245856
0.00257876
0.000219972
0.000229178
0.0024656
0.00219846
0.00232577
0.000216348
0.00256625
0.00245895
0.000472002
0.00253844
0.00231973
0.00244648
0.00259849
0.000411811
0.000232027
0.00232353
0.00246417
0.000451309
0.000185657
0.000178219
0.00230976
0.00234348
0.00225859
0.00224647
0.00252318
0.00254248
0.00254621
0.00248565
0.00253004
0.00256195
0.000201615
0.00256687
0.000202927
0.000219042
0.00257249
0.00243947
0.00223253
0.00023339
0.00255238
0.00214744
0.00250722
0.000453498
0.00219102
0.000456758
0.00254739
0.000467963
0.00234201
0.0021094
0.00046018
0.00259101
0.000501338
0.00245781
0.00245617
0.000436516
0.000463476
0.002326
0.000466818
0.00247591
0.000466494
0.000470238
0.00223032
0.00214959
0.00226185
0.00227518
0.000341431
0.000233128
0.000473756
0.00256416
0.00238217
0.00253557
0.00256198
0.00230863
0.0024187
0.00229746
0.00254454
0.00249765
0.00256258
0.000453733
0.00230612
0.00205405
0.00248434
0.00250484
0.00256639
0.00238978
0.00208032
0.000212533
0.00221341
0.000477397
0.00259699
0.00258541
0.00255833
0.0023105
0.00245587
0.0021185
0.00232744
0.00253238
0.000228976
0.00247781
0.00245676
0.00212424
0.000441979
0.00230914
0.00226148
0.00228699
0.00243068
0.0025414
0.000449378
0.00255893
0.00251872
0.000446484
0.00248245
0.00258743
0.000428653
0.00224949
0.00255348
0.00252342
0.000481097
0.0022458
0.00254885
0.00250312
0.000444333
0.00255743
0.00222022
0.00225102
0.00252893
0.00020627
0.00255764
0.00224072
0.00254259
0.0025738
0.00255368
0.00223339
0.00223543
0.00253676
0.00211194
0.00256709
0.00206796
0.00245324
0.000237194
0.000469514
0.000457939
0.000220526
0.00244954
0.000489482
0.002548
0.00232785
0.0021082
0.00046376
0.000208455
0.00230949
0.0025377
0.0025604
0.00258581
0.00221315
0.00247347
0.00249716
0.000442088
0.00248006
0.00220278
0.0025324
0.00254309
0.00225977
0.00254593
0.00241317
0.00225606
0.00232872
0.00048021
0.00252504
0.00253745
0.00234172
0.00251408
0.00204175
0.000205461
0.00227597
0.00042769
0.000206391
0.0024772
0.000206917
0.00252004
0.00244843
0.000206758
0.00245005
0.000459518
0.000205799
0.0025227
0.00234443
0.000439105
0.000203857
0.000200742
0.00249841
0.00251025
0.00251193
0.00242089
0.00229999
0.0025298
0.00222003
0.00250719
0.000200491
0.000194285
0.000196328
0.00244316
0.0023274
0.00247361
0.000449012
0.00252729
0.000472534
0.000463693
0.00250743
0.00246839
0.000455445
0.000432584
0.00229253
0.00199031
0.000190614
0.000445382
0.00244636
0.000203972
0.00228234
0.00250195
0.00245893
0.00245961
0.00249207
0.000205206
0.000202721
0.002257
0.00244211
0.000200425
0.00251525
0.000472946
0.00249564
0.00221237
0.000226458
0.000197974
0.000212687
0.000460655
0.00228025
0.00227627
0.00252937
0.00242847
0.00243674
0.00257982
0.0022762
0.00243692
0.00256665
0.00249372
0.000197878
0.00255614
0.00233459
0.00240759
0.000397541
0.00253621
0.000183642
0.00255955
0.002515
0.000200367
0.00041713
0.00247905
0.00248109
0.00243894
0.00231759
0.000212463
0.00232173
0.000214985
0.000457441
0.000442817
0.00241268
0.00251937
0.00243847
0.0024293
0.00254004
0.00230977
0.000443039
0.0024015
0.000198045
0.000208382
0.00226001
0.000194613
0.00232621
0.000469598
0.00246008
0.00256844
0.00229027
0.00240972
0.00232437
0.00226507
0.0019318
0.00254873
0.000182967
0.000189925
0.00245599
0.000212722
0.00019852
0.00250531
0.00223076
0.00223864
0.000221916
0.00241542
0.000211355
0.000461475
0.0025046
0.00256663
0.00021814
0.000471666
0.00239377
0.000214988
0.00258316
0.00229285
0.000193297
0.00239511
0.0022068
0.00237908
0.000464362
0.00228139
0.00253245
0.000164283
0.000180078
0.00249008
0.00189678
0.00225341
0.00248438
0.00243066
0.00250511
0.00221708
0.00224435
0.0002111
0.00244348
0.00242562
0.0023822
0.00250352
0.00238328
0.00225471
0.000450244
0.000198953
0.00225482
0.00253884
0.00230714
0.00212433
0.00208917
0.0004642
0.000209809
0.00240819
0.00225318
0.00046469
0.00246941
0.000465241
0.000186578
0.00218909
0.00230685
0.002358
0.00227312
0.000218537
0.000218291
0.0022046
0.000470918
0.000463517
0.000464362
0.00217096
0.00215485
0.00230125
0.00238354
0.00226463
0.000402267
0.00018265
0.00239592
0.00212845
0.00237598
0.000441475
0.000209865
0.00237775
0.00244845
0.00224917
0.00237757
0.00218958
0.00225095
0.00243715
0.000461552
0.000216184
0.0022515
0.000454952
0.0021972
0.000197399
0.00221005
0.000200398
0.000462172
0.000207901
0.00234532
0.000216717
0.00235293
0.00046665
0.00222295
0.002193
0.000194063
0.000452063
0.00215513
0.000454752
0.000451572
0.000188399
0.00223853
0.000190757
0.00221918
0.000189985
0.00199545
0.00231697
0.0021257
0.000211913
0.000207314
0.000440117
0.000438509
0.000462836
0.000456552
0.000203158
0.000184051
0.00214387
0.00219275
0.0022758
0.00218042
0.000204345
0.000173067
0.000423435
0.00198756
0.00215451
0.00209141
0.00216899
0.00217686
0.00225797
0.00214792
0.000190901
0.000435812
0.00210031
0.000212595
0.000421765
0.000185424
0.000408592
0.0019665
0.00203612
0.000159443
0.00032376
0.000142151
0.00013572
0.000350189
0.000165033
0.0001865
0.000449445
0.000205672
0.000450418
0.000187665
0.000188657
0.000447086
0.00018446
0.000188175
0.000459305
0.000433116
0.000199381
0.000208692
0.000194072
0.000428613
0.000202968
0.000436282
0.000167728
0.00013978
0.00014221
0.000414498
0.000172078
0.000180627
0.000439499
0.000205493
0.00193978
0.00269899
0.00209157
0.00215629
0.00212899
0.000445314
0.000176883
0.00246534
0.00241031
0.00241242
0.000140903
0.00197209
0.00253983
0.00229022
0.00195248
0.000417496
0.000405566
0.00270644
0.00246204
0.000218744
0.000145974
0.000223511
0.00255942
0.00180044
0.00250351
0.00246769
0.000234564
0.00237018
0.00211412
0.00251077
0.000134715
0.000135227
0.00022552
0.000200315
0.000256083
0.000195941
0.000216903
0.000207527
0.00247922
0.000473313
0.00241812
0.000187721
0.000169
0.000179692
0.000487897
0.00219418
0.00257788
0.00020821
0.000167384
0.000172143
0.00246058
0.00249535
0.000373895
0.00224168
0.00270345
0.00196863
0.00179582
0.000413796
0.000185798
0.000580974
0.000402008
0.000604026
0.000430031
0.000397969
0.000413157
0.000134035
0.00012927
0.0024251
0.0022207
0.00191364
0.00270375
0.000231223
0.000381222
0.000376022
0.0019676
0.00204377
0.000413685
0.00232439
0.00204389
0.00207044
0.00248685
0.000182859
0.00189148
0.00207682
0.00209628
0.000457076
0.00264911
0.00212155
0.00234771
0.000163546
0.0022172
0.00261352
0.00217224
0.000325111
0.000185981
0.00251739
0.00243388
0.00260163
0.00179129
0.00192306
0.000157311
0.00245184
0.00264249
0.00186631
0.00264448
0.0025002
0.000387219
0.00250899
0.00261528
0.00216689
0.00255119
0.00222991
0.00175912
0.00183526
0.000127705
0.00254137
0.000339567
0.000164726
0.00258702
)
;

boundaryField
{
    patch0
    {
        type            nutkWallFunction;
        Cmu             0.09;
        kappa           0.41;
        E               9.8;
        value           nonuniform List<scalar> 
4010
(
0.000299614
0.000299614
0.000305334
0.000305334
0.000309845
0.000309845
0.000309764
0.000309764
0.000305421
0.000305421
0.000306948
0.000306948
0.000305171
0.000305171
0.000293457
0.000293457
0.000282267
0.000282267
0.000310903
0.000310903
0.000264643
0.000264643
0.000263553
0.000263553
0.000198109
0.000198109
0.00025948
0.00025948
0.000302297
0.000302297
0.000301719
0.000301719
0.000202662
0.000202662
0.000259987
0.000259987
0.000262222
0.000262222
0.000269617
0.000269617
0.000175118
0.000175118
0.000273792
0.000273792
0.000282751
0.000282751
0.000264544
0.000264544
0.000277616
0.000277616
0.000216076
0.000216076
0.00021517
0.00021517
0.000309715
0.000309715
0.00029967
0.00029967
0.000302568
0.000302568
0.00027752
0.00027752
0.000224816
0.000224816
0.000244462
0.000244462
0.000237506
0.000237506
0.000310368
0.000310368
0.000289279
0.000289279
0.000219139
0.000219139
0.000303717
0.000303717
0.000243373
0.000243373
0.00026389
0.00026389
0.00021345
0.00021345
0.00018423
0.00018423
0.000214406
0.000214406
0.000280373
0.000280373
0.000303019
0.000303019
0.000224427
0.000224427
0.000236967
0.000236967
0.000310169
0.000310169
0.000165892
0.000165892
0.000164859
0.000164859
0.000295719
0.000295719
0.000186586
0.000186586
0.000279295
0.000279295
0.00029264
0.00029264
0.000197643
0.000197643
0.000311097
0.000311097
0.000230307
0.000230307
0.000300064
0.000300064
0.000307911
0.000307911
0.000297521
0.000297521
0.000290874
0.000290874
0.000292344
0.000292344
0.000289829
0.000289829
0.000231695
0.000231695
0.000287946
0.000287946
0.000310823
0.000310823
0.000296687
0.000296687
0.000289649
0.000289649
0.000234476
0.000234476
0.000294529
0.000294529
0.000171844
0.000171844
0.000295943
0.000295943
0.000231381
0.000231381
0.000305053
0.000305053
0.000304535
0.000304535
0.000257909
0.000257909
0.000310674
0.000310674
0.000306396
0.000306396
0.000309898
0.000309898
0.000295123
0.000295123
0.000306894
0.000306894
0.000218955
0.000218955
0.000236534
0.000236534
0.000173479
0.000173479
0.000280097
0.000280097
0.000292829
0.000292829
0.000310417
0.000310417
0.000299451
0.000299451
0.000163122
0.000163122
0.000168861
0.000168861
0.000272587
0.000272587
0.000223867
0.000223867
0.000210526
0.000210526
0.000210089
0.000210089
0.000175779
0.000175779
0.000276683
0.000276683
0.00031023
0.00031023
0.000304449
0.000304449
0.000294307
0.000294307
0.000244956
0.000244956
0.00030795
0.00030795
0.000176033
0.000176033
0.000290328
0.000290328
0.000252364
0.000252364
0.000215882
0.000215882
0.000308564
0.000308564
0.000296897
0.000296897
0.000252564
0.000252564
0.000298594
0.000298594
0.000212385
0.000212385
0.000308996
0.000308996
0.000240079
0.000240079
0.000307834
0.000307834
0.000240079
0.000240079
0.000309929
0.000309929
0.000165311
0.000165311
0.000309153
0.000309153
0.000302998
0.000302998
0.000297635
0.000297635
0.000310343
0.000310343
0.000242189
0.000242189
7.44593e-05
7.44593e-05
0.000173053
0.000173053
0.000164029
0.000164029
0.000299642
0.000299642
0.000261853
0.000261853
0.000258303
0.000258303
0.000305633
0.000305633
0.000222143
0.000222143
7.72972e-05
7.72972e-05
0.000308575
0.000308575
0.000304499
0.000304499
2.66983e-05
2.66983e-05
0.000246582
0.000246582
0.000183941
0.000183941
0.000215952
0.000215952
0.000304618
0.000304618
0.000298911
0.000298911
0.000266822
0.000266822
0.000309451
0.000309451
0.00031109
0.00031109
0.000278511
0.000278511
2.30249e-05
2.30249e-05
2.30249e-05
2.21263e-05
2.21263e-05
2.21263e-05
0.000307654
0.000307654
0.000219281
0.000219281
0.000261589
0.000261589
0.000183043
0.000183043
0.000299591
0.000299591
0.000298882
0.000298882
0.000231367
0.000231367
3.97596e-05
3.97596e-05
3.97596e-05
0.000192918
0.000192918
0.000303674
0.000303674
0.000306552
0.000306552
0.000269189
0.000269189
7.41682e-05
7.41682e-05
0.000308421
0.000308421
0.000306429
0.000306429
3.07914e-05
3.07914e-05
0.000244777
0.000244777
0.000257332
0.000257332
0.000306312
0.000306312
7.56647e-05
7.56647e-05
0.000228999
0.000228999
0.000217795
0.000217795
0.000222105
0.000222105
5.71328e-05
5.71328e-05
0.000310041
0.000310041
0.000222382
0.000222382
0.000287996
0.000287996
0.000303689
0.000303689
0.000307983
0.000307983
0.000288424
0.000288424
0.000311035
0.000311035
0.000198645
0.000198645
0.000239942
0.000239942
4.7154e-05
4.7154e-05
0.000294949
0.000294949
0.000305539
0.000305539
0.000235378
0.000235378
0.000303127
0.000303127
0.000308434
0.000308434
0.000227851
0.000227851
0.000164489
0.000164489
0.000302585
0.000302585
0.000213792
0.000213792
0.000235786
0.000235786
0.000309451
0.000309451
0.00030653
0.00030653
0.000254624
0.000254624
0.000299561
0.000299561
0.000305916
0.000305916
0.00030406
0.00030406
0.000225929
0.000225929
4.04256e-05
4.04256e-05
4.04256e-05
0.000254762
0.000254762
0.000199682
0.000199682
0.000206369
0.000206369
0.000197193
0.000197193
5.13759e-05
5.13759e-05
0.000307049
0.000307049
0.000223031
0.000223031
0.000283984
0.000283984
0.000300565
0.000300565
0.00023131
0.00023131
0.000303344
0.000303344
0.000186842
0.000186842
0.00018449
0.00018449
1.59581e-05
1.59581e-05
1.59581e-05
7.69701e-05
7.69701e-05
0.00023117
0.00023117
0.000297371
0.000297371
0.000225897
0.000225897
0.000247134
0.000247134
0.000308317
0.000308317
0.000299615
0.000299615
0.000258965
0.000258965
0.000294731
0.000294731
0.000304279
0.000304279
0.000268517
0.000268517
0.000235638
0.000235638
0.000223236
0.000223236
0.000294486
0.000294486
0.000273245
0.000273245
0.000253002
0.000253002
0.000302594
0.000302594
0.000308303
0.000308303
0.000229808
0.000229808
0.000198601
0.000198601
3.65378e-05
3.65378e-05
0.000293953
0.000293953
0.00020658
0.00020658
4.89567e-05
4.89567e-05
0.000256338
0.000256338
1.69755e-05
1.69755e-05
1.69755e-05
0.000299287
0.000299287
0.000295613
0.000295613
0.000230692
0.000230692
4.11051e-05
4.11051e-05
4.11051e-05
0.000302373
0.000302373
0.000205208
0.000205208
0.000297832
0.000297832
0.000188502
0.000188502
4.25076e-05
4.25076e-05
0.000179217
0.000179217
0.000281781
0.000281781
0.000310541
0.000310541
0.000308099
0.000308099
0.000308092
0.000308092
0.00025103
0.00025103
6.79923e-05
6.79923e-05
0.000229729
0.000229729
0.000231208
0.000231208
0.000309135
0.000309135
0.000297556
0.000297556
0.000218363
0.000218363
0.000205841
0.000205841
0.000269129
0.000269129
0.000292345
0.000292345
0.000268696
0.000268696
0.000230182
0.000230182
0.000292508
0.000292508
0.000308837
0.000308837
0.000232927
0.000232927
0.000300442
0.000300442
0.000206355
0.000206355
0.000306426
0.000306426
0.000209341
0.000209341
5.08412e-05
5.08412e-05
0.000203415
0.000203415
0.000233996
0.000233996
0.000225047
0.000225047
0.000207844
0.000207844
0.000297792
0.000297792
0.000306433
0.000306433
0.000260681
0.000260681
0.000253707
0.000253707
0.000297637
0.000297637
0.000201242
0.000201242
5.81225e-05
5.81225e-05
3.06906e-05
3.06906e-05
3.06906e-05
0.000290739
0.000290739
0.000234308
0.000234308
0.000221973
0.000221973
0.000306914
0.000306914
0.000302221
0.000302221
6.84596e-05
6.84596e-05
0.000292569
0.000292569
0.000205578
0.000205578
0.000240539
0.000240539
0.00029521
0.00029521
0.000250233
0.000250233
0.000301846
0.000301846
0.000162233
0.000162233
0.000230901
0.000230901
0.000298526
0.000298526
0.000190954
0.000190954
0.000304763
0.000304763
0.000302165
0.000302165
4.15619e-05
4.15619e-05
4.15619e-05
0.000288731
0.000288731
0.00029964
0.00029964
0.000299437
0.000299437
0.000273122
0.000273122
0.000210527
0.000210527
0.00023084
0.00023084
0.000300551
0.000300551
0.000206845
0.000206845
0.000304238
0.000304238
0.000183288
0.000183288
0.00029904
0.00029904
0.000234164
0.000234164
0.000285064
0.000285064
0.000308004
0.000308004
0.000250691
0.000250691
0.000247086
0.000247086
0.000288573
0.000288573
0.00023489
0.00023489
0.000228324
0.000228324
0.000299118
0.000299118
0.000205468
0.000205468
0.000302123
0.000302123