/*--------------------------------*- C++ -*----------------------------------*\
  =========                 |
  \\      /  F ield         | OpenFOAM: The Open Source CFD Toolbox
   \\    /   O peration     | Website:  https://openfoam.org
    \\  /    A nd           | Version:  8
     \\/     M anipulation  |
\*---------------------------------------------------------------------------*/
FoamFile
{
    version     2.0;
    format      ascii;
    class       volScalarField;
    location    "0.3";
    object      p_rgh;
}
// * * * * * * * * * * * * * * * * * * * * * * * * * * * * * * * * * * * * * //

dimensions      [1 -1 -2 0 0 0 0];

internalField   nonuniform List<scalar> 
1924
(
1.40275
0.852179
-0.277004
-0.764575
0.86772
-1.34394
-1.68032
-2.25508
-0.74589
0.0555869
0.828693
0.83997
350.058
0.395776
-3.92697
-3.61803
88.796
1.53647
5.21177
-1.93033
1015.61
2.96304
2.66222
2.63821
2.22774
1078.86
1112.72
0.268473
0.749466
1.33708
2.64221
81.0394
17.9481
6.43141
0.40192
2.61889
75.8743
0.964993
40.1249
2.99835
539.759
648.951
1003.46
2.62518
-2.79289
363.785
130.234
-0.836655
784.983
711.822
2.32528
860.318
2.21386
2.22666
390.625
0.123436
451.678
0.206036
-0.233954
2.46909
2.45023
-3.47345
2.45887
1484.35
2.38664
-0.588609
1.68614
2.6127
112.425
2.28392
885.506
-2.91645
1182.92
-0.020361
-0.200999
-58.7174
-0.680444
-0.358964
-0.552374
2.34807
-1.30516
1070.36
739.596
1055.51
3.74107
2.55076
-0.341047
-5.37022
580.15
1101.64
8.09106
369.915
426.878
168.661
1193.51
2.40998
-0.743168
-1.65067
2.70238
-59.0909
-0.0492667
1155.07
3.03872
17.423
17.2003
-0.669339
-0.453734
-44.6608
2.39429
418.914
-1.01533
37.3438
0.920814
378.044
-0.414766
940.628
-0.384413
-1.90987
2.31827
-0.571561
23.761
1073.1
842.776
772.756
0.95653
-39.2274
-56.1929
-0.492271
421.013
1343.52
-1.08387
-0.623187
-59.7044
53.4318
1206.23
259.562
0.659948
-0.324832
2.74492
0.754321
-0.407038
3.0677
244.948
807.308
-1.2097
1417.09
-44.3072
164.847
2.40148
2.33015
1526.08
1107.46
256.48
-1.2129
-1.74905
-33.5204
1342.37
0.475477
-1.58875
1564.4
87.2301
-59.5794
-1.88953
1038.04
1542.68
134.652
136.467
1418.19
-0.56787
417.833
1.45689
-3.02203
-0.715072
2.98326
-0.234636
605.488
308.184
-62.3288
2.51524
-3.21307
-15.1438
-1.46169
-0.227601
32.6533
704.502
0.958705
-46.8551
6.61245
-0.843602
-0.0602569
-45.912
-3.71655
-1.62092
-3.69534
159.348
1035.14
10.1172
1097.58
679.245
1489.32
743.663
0.468596
196.821
-3.36864
0.895479
-6.49202
-4.91021
1200.22
1099.25
-59.7848
903.374
242.625
-4.18475
177.197
-0.746025
-0.491694
2.37634
-45.073
-5.07962
-0.609887
-37.2422
802.051
216.924
-3.78277
-2.85913
12.6193
-2.06629
-0.830395
187.033
1515.48
332.902
3.76652
485.376
-59.814
20.5796
1574.84
-3.47743
-5.96965
160.063
908.602
-1.05428
643.802
-3.10113
1296.79
866.139
1287.46
-5.71407
-0.691072
-0.290228
-0.729504
36.5029
993.69
191.22
202.477
-0.868157
-3.13997
900.442
1131.89
-35.1297
-6.50114
-20.4859
169.746
2.53018
-0.484204
33.2464
-0.397871
21.4858
-0.760487
-11.6332
1209.24
918.853
1522.24
321.548
1223.66
3.24217
-1.31428
-0.173032
22.4331
-1.34864
1463.88
893.311
1140.5
3.09806
141.511
671.857
0.113988
-2.07621
1099.71
-6.37042
1111.8
60.5796
0.536886
26.0867
-2.88677
746.651
1533.92
-3.46391
1302.32
-0.719145
-2.96948
1207.74
-3.96182
-2.40435
2.34127
-3.786
1082.84
8.32122
-2.34339
1164.56
-0.794403
1337.37
2.36168
139.724
2.1261
-1.24506
6.33718
-12.2783
-6.27558
181.483
62.2503
-0.383976
507.639
-3.98619
1522.6
1068.94
-0.910583
391.031
1252.26
-0.885869
-2.51902
1484.36
2.03148
2.10064
-4.67503
-0.699863
29.1529
2.70007
47.4074
0.535458
-4.4646
-0.778007
1408.85
1.98369
1351.89
-2.82573
-1.34714
790.913
1.0426
2.36498
1110.5
372.355
142.98
1573.05
-2.30941
1317.33
-0.819932
1100.68
-6.38507
673.553
2.42272
27.2545
-2.27093
-2.19106
2.5007
3.42821
-5.07561
2.0246
7.39971
28.7704
-4.1057
-1.96756
11.8421
306.22
-0.903646
17.8161
-69.1944
-2.18648
-2.71508
1.84079
0.597467
-0.554964
-0.71941
1100.65
153.919
920.184
-1.82285
-0.641052
2.15357
55.9667
-5.43098
1556.38
2.12974
449.741
1.76654
-6.24321
-60.1017
77.1412
1.86935
-1.81528
-1.27616
1415.06
-0.850955
614.66
-49.7446
1384.85
2.55864
-1.44131
1.33236
131.822
169.8
7.15252
2.16465
-6.4455
-6.14268
58.2719
2.36297
-0.983084
-1.7993
2.41783
-1.18318
-1.83271
6.5409
-1.28445
1204.92
2.97828
-1.78447
-1.22772
-4.08125
2.05574
2.41795
2.4438
-0.861601
2.34381
2.2499
-5.02783
3.19793
-1.69525
10.6904
-6.14077
2.80107
1059.09
13.7936
78.3537
1545.16
0.920031
1534.62
4.88893
-0.79862
181.966
2.20602
-1.87705
2.07669
114.458
1.17539
4.41549
21.5962
-1.45732
-1.67185
2.27747
-0.31678
-0.818438
1.97982
2.53637
2.30395
177.012
1.97474
1.48232
81.4169
-6.16938
-0.169704
20.8356
2.1939
-0.669301
-1.3414
2.39399
-0.722421
1424.45
-6.85316
0.725631
-0.809
3.88087
-5.91422
2.48061
1.23821
2.00396
2.58559
2.61913
-0.637738
2.3073
-1.60865
3.5976
2.28434
2.23241
-1.51023
-1.47074
-1.08204
0.0277762
2.33255
4.40263
1519.38
-1.46782
-1.47652
427.296
2.16124
12.8816
2.31714
-1.4237
2.62437
2.14099
-1.36572
-0.876071
-0.946008
2.21371
77.4348
1.88747
1.68078
2.00535
491.536
-6.07585
-0.457979
2.26947
-1.336
-0.828708
-1.29916
84.0787
616.826
-0.921472
2.4741
7.53976
81.7241
2.30777
-6.62632
2.18046
2.47732
3.37161
1.33508
-4.99122
2.36643
2.35702
1.89617
2.089
1511.69
2.39407
-0.81922
-1.10442
2.39386
9.43812
1502.1
0.929959
-2.25283
2.44073
2.34548
-0.753715
2.24418
3.16676
2.43548
2.46692
2.37443
1533.23
742.4
1.94544
2.29675
-49.6854
2.28615
94.764
2.43502
-0.728949
-1.84195
-0.896284
2.13151
-1.02235
2.36892
2.89687
2.07014
-1.00704
1.66719
2.48376
7.63171
-1.18479
2.36334
2.11102
0.128055
-6.20736
1.93755
2.40679
2.41359
-1.19393
2.38607
-0.847076
1499.1
3.76083
2.27228
1437.13
2.41686
2.39789
-1.17146
1.5139
-0.918507
1.16947
2.32451
2.41314
-1.15266
85.6239
1510
2.22287
-6.57441
498.386
-0.826959
2.45948
2.38896
2.16922
-1.10381
2.44756
-1.5457
2.13747
0.78614
86.6775
2.88289
2.42201
1513.62
-1.06116
-0.765238
-2.47617
2.12415
23.061
-0.954595
2.46029
0.346859
8.84815
2.42108
-0.262955
2.57893
-0.93625
2.34398
2.25227
2.4285
2.74596
1538.46
2.46667
-1.01089
2.31423
2.18087
2.20427
2.74695
2.30516
-1.02097
2.15513
-0.5551
2.42414
3.18111
2.28764
2.09889
0.460987
82.9789
2.45148
1.87322
2.30738
-0.768568
2.79344
2.38797
2.35611
2.43352
-1.02564
-0.861253
1.75526
1499.12
2.38124
-0.026184
2.27634
2.23336
2.22451
-0.763813
2.41657
-1.7517
-0.91218
-0.797046
-5.69494
-0.515935
2.42245
2.43982
-0.991726
-0.972399
0.930285
1.24501
2.34075
78.2836
1.52306
1560.76
-0.955131
2.43314
1361.85
82.9922
-2.34129
2.6009
2.30572
-0.906549
2.41923
-0.991628
2.24131
2.26511
-0.726614
2.35264
2.53885
3.3173
2.4281
2.47415
2.25282
2.61331
-0.937317
2.27371
2.29623
2.42962
2.19463
1565.17
2.61904
3.69979
2.02165
2.32375
-0.839527
1228.88
-0.965918
0.368944
-0.706471
2.447
-0.316007
382.102
-62.4384
2.43243
2.58743
-0.841409
1.93268
2.38888
1532.88
2.27091
1.12303
2.51277
1.40338
2.4182
0.830521
2.34127
2.43374
1.72541
-0.672814
2.48583
2.60771
1559.08
2.2767
2.43427
2.29157
-0.800736
2.42796
2.25796
-7.12347
1536.4
1525.09
87.1912
-1.29001
2.43427
1513.66
0.524326
-0.550075
1.62351
-0.388408
-0.711597
2.38538
2.41534
2.54937
2.29795
2.43865
2.47841
0.0633596
2.52354
1530.57
2.12878
2.87943
-0.813496
2.29194
2.53754
2.43625
2.26025
2.37712
-0.914869
77.3519
-44.7007
-2.26816
-1.02863
-0.469837
2.43867
-0.745697
1513.92
2.40069
2.31596
-0.78762
2.0589
2.33634
-0.667911
-0.82059
1.95154
2.38907
2.30209
2.35742
2.54067
2.48194
1375.59
-0.810792
-0.676102
1528.99
0.228759
1.88417
2.3052
-1.12206
-0.77781
1527.93
2.43715
2.29809
2.43046
0.816848
2.43626
2.43083
2.28705
2.35131
81.2999
-0.644856
2.43801
1.42631
-0.760444
2.33273
1.18805
1.799
2.42127
-0.17606
-0.710057
2.30301
2.47094
2.41823
2.48291
-0.887086
0.898941
-0.692049
1280.47
2.44026
2.44086
2.43304
2.4793
1341.16
2.32975
2.40232
2.39066
0.519958
2.31563
23.5734
1.61756
2.43588
-0.784824
-0.0226051
2.20713
2.34397
2.31508
2.43786
-1.1134
1.09293
-0.566646
2.14938
-0.818356
2.3819
2.00749
2.4407
2.4627
2.43136
2.40163
-0.662647
2.3109
2.40324
83.717
2.3365
-0.790865
-0.685295
2.40215
841.053
2.35476
1513.3
2.31351
0.644452
-1.19187
2.24535
2.4311
1.9361
2.7003
1.52959
1.32998
2.36611
-0.64581
1310.77
-0.336297
-0.650888
-0.677131
-0.681519
0.269007
2.37389
-0.311932
2.42017
-1.18244
2.32224
2.44077
2.44014
2.40927
-0.588981
2.4392
2.39767
-0.536478
2.41934
656.445
-0.683807
2.00229
2.44135
1.77517
2.43788
2.44217
2.33825
-1.03226
-1.11878
-0.185894
2.40517
1555.55
-0.647338
2.41202
-0.624903
10.7239
-3.53053
2.35658
2.36061
0.392571
2.42786
2.3264
2.10122
2.82545
0.843706
2.31526
2.32291
1.69742
-0.929151
0.704978
-0.634913
2.03676
2.4467
2.2077
2.38954
2.04138
2.43124
0.059301
2.35386
2.41732
1579.47
2.31332
1.15654
1200.61
2.39595
-72.2129
2.426
0.622163
1536.98
-0.607347
2.3201
-4.23592
2.44212
1.90311
-0.416467
2.40895
2.38489
2.44217
-0.786268
2.3339
-1.02713
2.39714
-0.283053
1496.46
2.20585
2.35375
1.36186
-49.0753
0.178346
2.32931
2.37901
2.35335
2.40675
1.53921
2.39762
1550.6
1538.98
2.32531
2.17969
1.83523
-0.592946
2.37529
2.32195
-0.928952
2.33733
1.08112
0.919196
2.41165
2.40528
2.43818
2.3489
0.708116
2.32618
2.62703
-0.0834245
3.90678
-0.56429
1557.25
2.39504
2.43518
0.401969
2.16559
-0.581934
-0.57878
2.11657
2.28431
2.33685
2.39981
-0.490187
-0.226261
-0.527144
621.881
-0.787334
-0.667174
2.00504
2.35248
1.69103
-0.000412071
1489.62
1543.44
2.37279
-0.581643
1.28091
2.44536
2.44437
2.37018
3.73633
1530.34
2.39431
2.3987
0.0204548
-4.62857
1.46279
0.499517
2.36846
-0.559589
2.32741
2.34489
1.94649
2.38614
-0.407975
2.42596
2.39546
-1.09044
-4.73473
2.37525
-0.351386
1.62108
2.3267
2.2923
2.39245
2.32497
1536.55
2.42018
-0.669683
-0.173904
2.3807
-0.557622
2.44277
0.220935
2.44122
2.38928
2.33089
2.26457
1.81842
2.45239
0.67653
2.34311
2.38018
-0.99407
2.08116
2.35931
1229.83
2.41465
2.33597
-0.595966
2.16546
0.315196
2.19898
2.37556
0.86657
-0.944209
-0.00829588
2.38427
2.03208
-0.0878212
-1.13373
1.75577
2.43504
2.33078
2.38681
2.35771
-0.957372
2.32244
2.46837
2.37796
2.29256
1.13649
2.33495
2.43129
1.31764
2.45158
2.44965
-5.72251
2.41384
2.38185
-0.440698
2.33437
2.35201
2.27161
2.40912
0.493511
-0.467947
-0.491333
-51.7645
1.92347
2.34397
-1.08944
-0.60611
0.750014
1.48243
0.082834
2.35749
2.33404
2.35654
-0.505997
-0.506559
2.44483
2.37146
0.569905
2.44566
2.44691
2.39568
2.38576
-1.14784
2.36455
2.38164
1357.56
955.412
1.86831
-0.513896
0.168402
0.931741
-0.154419
-0.382887
2.42022
1.62734
1539.24
2.13371
2.23064
2.44624
-1.06505
2.36588
543.111
2.44113
2.09386
-0.511043
2.38262
-0.341246
2.34421
2.3728
2.4387
-4.66394
1.07091
2.00653
1563.03
0.0421512
1.24857
1.41544
2.39018
0.333138
2.35419
2.1685
2.33342
2.455
2.37452
2.27465
2.3154
-0.923212
2.33793
2.29066
1550.62
1508.4
0.715722
1547.91
2.32464
2.34787
2.41097
1.56464
-0.0151433
1.95916
2.3354
1.75215
2.36087
2.33935
1578.6
-0.514063
0.883582
2.37322
-0.194049
2.43118
0.409554
865.795
1535.85
0.554281
2.37433
-0.394766
889.392
829.438
2.24241
2.34377
2.38057
1536.27
0.0584665
2.42702
2.40584
2.45078
-0.751484
-0.417108
2.35528
2.21899
-0.352795
0.778404
0.941546
0.61838
2.34299
1.69503
2.33742
-0.250512
1.12284
1.8577
2.44342
2.44619
0.203267
2.37895
2.06877
2.34025
1557.12
2.13605
2.34849
1.06433
2.36002
1.44165
1555.2
-0.435811
1571.59
1512.27
2.02933
1.2871
2.37152
2.45209
1577.19
2.35808
2.42306
2.37752
2.37912
2.34053
-0.320539
2.27559
-0.451941
2.4384
2.3936
-0.466954
2.30869
0.274016
2.28814
2.36115
2.43552
2.23518
1.58025
0.895644
2.45516
1.22614
-0.627271
2.24739
0.410419
1.94428
2.31635
1.11424
2.37925
1.38196
1567.94
1.80671
2.41876
0.741838
0.473627
2.16645
2.36849
-1.19995
2.22928
2.3314
1559.92
-0.0791067
1.26557
-0.488713
1.52383
-1.00107
2.34837
0.594748
-0.727286
-1.02367
1.45519
2.33646
-0.323357
-0.270664
2.40828
1.06093
1.89981
2.50624
0.797098
1.41322
1.21031
2.37103
2.1131
277.525
0.948896
-0.296674
2.38724
1.70202
-0.0179945
2.37177
2.08117
2.19216
2.42239
-0.356719
2.42694
0.104242
-1.15509
-1.14023
1533.39
2.35726
1.10909
2.45586
2.01266
1.35914
1548.65
1.65016
2.3502
0.650018
-0.252493
2.34738
-1.07706
1.24797
0.4623
-0.44182
1016.99
627.484
2.44105
1580.83
1.19372
2.44423
2.27494
0.288956
2.25061
1.54691
0.348003
1.97489
1457.59
2.1443
1486.71
1469.05
0.166688
0.515885
1593.69
-0.949569
2.23603
2.40203
2.28518
2.34189
2.42051
2.34074
1.80693
2.45349
1580.35
1585.66
2.34537
-0.118628
1586.61
1.49581
2.30381
1549.02
2.35489
1.3943
2.36701
-0.377975
1371.01
2.37816
2.35503
822.26
1.34505
1.05975
1398.77
-0.781752
2.38435
2.18662
2.43524
1.76029
2.20624
0.901659
2.31111
0.619559
1.89513
2.21698
2.06458
2.34795
0.756908
1576.56
1.66599
-0.274192
2.1183
2.43215
1416.68
2.45686
1596.89
2.38245
-0.20985
-0.243991
2.03336
2.32723
1.61893
2.41479
1.52509
1.85409
-0.656411
-0.298261
0.347906
2.4303
1.18739
-0.400267
1.47983
0.494928
0.397689
1.96715
2.35764
2.14588
2.24069
2.37049
1.76995
-0.0676052
-0.504166
0.951361
-0.231381
0.244629
2.37177
0.670909
2.19933
2.25266
2.38443
2.10279
2.33397
0.810358
1.9319
1551.53
2.16664
-0.42137
2.2149
0.0331758
2.07755
0.543227
1594.05
0.191843
1605.26
0.0863181
2.42523
1.72756
1563.17
1.13298
1.39418
-0.502166
2.27399
1617.59
2.13077
1.64226
1610.48
2.45077
2.45573
2.03528
2.02415
-0.203207
-0.210242
1591.32
-0.218202
-0.19332
2.39809
1.85879
2.44164
2.06798
2.16541
1.60098
2.11031
2.283
2.43821
-0.329854
2.3533
1.9946
2.18164
-0.256373
2.20823
1605.03
2.34449
0.385738
1573.9
2.34193
1.93288
2.34491
2.04376
0.253532
2.35307
1.82139
1.5222
2.36454
2.10095
-0.183541
2.41028
2.37611
2.38391
2.22112
2.19531
2.08143
0.298055
2.30119
2.13487
0.429437
1545.01
1276.18
1263.9
2.38456
2.24368
1.74541
1.99309
0.680385
2.15128
1628.49
0.954649
2.17886
2.04074
0.81813
2.42056
2.43214
1597.14
2.37664
0.553366
1.90061
2.4533
-0.204165
2.12542
2.07752
-0.142514
2.19193
2.35148
2.36218
1.70847
1.96586
2.37502
0.163488
2.32972
2.10975
2.30921
1607.06
1.22472
1.34851
1.63766
2.42919
-0.277281
0.117937
2.05935
2.01827
-0.0984201
-0.134408
2.21459
-0.0149463
2.15271
2.38872
-0.0458158
-0.115103
2.25388
2.43171
-0.146601
2.36031
0.0292422
1534.83
1556.98
1593.76
-0.118416
2.16573
2.10524
2.02182
1.47832
1.97179
1628.69
2.44751
-0.377268
2.09078
0.0643638
0.178971
2.1882
-0.119005
2.0611
0.439718
2.2254
-0.50889
-0.398105
-0.350292
2.40171
1.83445
-0.162672
2.1308
-0.146893
2.2735
0.217457
1.90968
0.293834
1615.86
-0.00893585
2.33858
2.41311
2.14329
0.633876
2.45023
0.0275302
2.04568
2.0026
1.06622
2.16506
1.59744
1.73997
0.102688
-0.113829
0.903397
-0.0979776
2.19901
0.767914
-0.139639
2.09108
1580.69
2.12557
0.331998
2.11419
-0.231967
2.24557
-0.0332497
2.42806
2.42277
0.0593279
1612.86
1.80206
0.00357494
-0.0750486
-0.0725004
2.07901
1.94841
0.511945
-0.0529801
0.122652
2.17551
-0.0468891
2.14578
-0.0713253
1629
1635.59
2.11317
-0.0638402
-0.0543092
2.43877
1423.2
2.01717
1.70431
0.0821592
0.219478
2.05716
0.0301376
2.30295
2.31269
2.10398
2.13094
2.1556
2.21878
-0.185569
-0.11884
2.28235
-0.0404156
1.96651
2.08778
2.12851
2.43525
2.13987
0.0546919
2.19434
1609.78
1598.35
0.155006
2.12172
-0.0180143
0.341748
0.404098
0.108834
-0.0107705
1.88186
0.00117018
2.22804
-0.00343894
0.0116455
2.11025
-0.0583773
2.1731
-0.3032
2.25482
2.04341
-0.017459
1.99967
1.82869
1.79782
0.037291
-0.255872
0.0765438
0.00772231
2.15561
0.25162
2.07731
2.12557
2.14237
2.24686
2.22019
2.22959
0.1619
2.4468
0.119531
2.10266
2.1333
0.05549
0.0250569
-0.00647289
0.236844
0.260319
0.195307
1.904
0.0437629
1.94486
2.12051
0.0356217
0.0903158
0.0270761
2.20318
0.0341292
2.13169
2.13449
2.13839
0.0718631
0.0615545
2.18118
0.187973
0.0428747
2.16271
0.0624815
0.066589
2.14835
-0.326668
0.0729281
0.0707023
0.0662438
0.0560964
0.0697137
1611.44
1619.64
0.067314
1619.27
0.0657321
1627.59
2.18244
2.17512
1.87785
2.196
2.20451
2.25679
2.15818
2.16407
2.28492
2.27486
0.110162
0.101763
0.312241
0.0817905
0.0866332
0.133004
0.145765
0.0659914
2.13595
2.13714
2.13813
2.1407
2.15
2.14571
0.177472
0.0627596
-0.307471
0.0829449
0.139862
0.105555
2.44391
2.44311
1557.59
670.386
1532.11
2.43719
2.43586
2.1985
2.31616
2.43309
2.44005
1441.07
-0.434498
1520.36
1540
2.43553
1481.95
2.21121
1050.96
1550.81
2.24533
1271.34
2.00243
1429.31
1541.09
2.53935
2.51807
960.368
973.992
19.8008
923.043
760.162
1029.08
1545.8
1516.65
1486.21
1165.3
1217.24
1169.44
1411.17
687.546
2.25241
1260.95
1.0627
0.610014
1495.16
1529.48
935.127
1309.02
-0.501656
383.613
1577.1
1648.6
1175.36
1058.28
957.07
821.097
877.217
883.749
1006.98
1757.88
1714.82
1553.66
200.33
565.992
-0.686932
627.679
1130.52
0.218803
984.029
271.886
1133.95
4.86952
665.282
105.237
2.1689
1254.71
613.338
430.335
10.8313
1278.25
-1.74761
3.93894
2.87768
2.53284
1265.45
-2.45261
1105.63
275.516
1128.42
2.08218
2.50716
2.84271
557.351
211.804
1748.84
2.36419
-1.83995
552.694
-1.94961
2.46566
583.558
2.37385
-2.30568
1266.78
2.29108
1220.49
380.346
381.795
-241.314
2.32786
1600.67
1482.26
2.58198
)
;

boundaryField
{
    patch0
    {
        type            fixedFluxPressure;
        gradient        uniform 0;
        value           nonuniform List<scalar> 
4010
(
1.40275
1.40275
0.852179
0.852179
-0.277004
-0.277004
-0.764575
-0.764575
0.86772
0.86772
-1.34394
-1.34394
-1.68032
-1.68032
-2.25508
-2.25508
-0.74589
-0.74589
0.0555869
0.0555869
0.828693
0.828693
0.83997
0.83997
350.058
350.058
0.395776
0.395776
-3.92697
-3.92697
-3.61803
-3.61803
88.796
88.796
1.53647
1.53647
5.21177
5.21177
-1.93033
-1.93033
1015.61
1015.61
2.96304
2.96304
2.66222
2.66222
2.63821
2.63821
2.22774
2.22774
1078.86
1078.86
1112.72
1112.72
0.268473
0.268473
0.749466
0.749466
1.33708
1.33708
2.64221
2.64221
81.0394
81.0394
17.9481
17.9481
6.43141
6.43141
0.40192
0.40192
2.61889
2.61889
75.8743
75.8743
0.964993
0.964993
40.1249
40.1249
2.99835
2.99835
539.759
539.759
648.951
648.951
1003.46
1003.46
2.62518
2.62518
-2.79289
-2.79289
363.785
363.785
130.234
130.234
-0.836655
-0.836655
784.983
784.983
711.822
711.822
2.32528
2.32528
860.318
860.318
2.21386
2.21386
2.22666
2.22666
390.625
390.625
0.123436
0.123436
451.678
451.678
0.206036
0.206036
-0.233954
-0.233954
2.46909
2.46909
2.45023
2.45023
-3.47345
-3.47345
2.45887
2.45887
1484.35
1484.35
2.38664
2.38664
-0.588609
-0.588609
1.68614
1.68614
2.6127
2.6127
112.425
112.425
2.28392
2.28392
885.506
885.506
-2.91645
-2.91645
1182.92
1182.92
-0.020361
-0.020361
-0.200999
-0.200999
-58.7174
-58.7174
-0.680444
-0.680444
-0.358964
-0.358964
-0.552374
-0.552374
2.34807
2.34807
-1.30516
-1.30516
1070.36
1070.36
739.596
739.596
1055.51
1055.51
3.74107
3.74107
2.55076
2.55076
-0.341047
-0.341047
-5.37022
-5.37022
580.15
580.15
1101.64
1101.64
8.09106
8.09106
369.915
369.915
426.878
426.878
168.661
168.661
1193.51
1193.51
2.40998
2.40998
-0.743168
-0.743168
-1.65067
-1.65067
2.70238
2.70238
-59.0909
-59.0909
-0.0492667
-0.0492667
1155.07
1155.07
3.03872
3.03872
17.423
17.423
17.2003
17.2003
-0.669339
-0.669339
-0.453734
-0.453734
-44.6608
-44.6608
2.39429
2.39429
418.914
418.914
-1.01533
-1.01533
37.3438
37.3438
0.920814
0.920814
378.044
378.044
-0.414766
-0.414766
940.628
940.628
-0.384413
-0.384413
-1.90987
-1.90987
2.31827
2.31827
-0.571561
-0.571561
23.761
23.761
1073.1
1073.1
842.776
842.776
772.756
772.756
0.95653
0.95653
-39.2274
-39.2274
-56.1929
-56.1929
-0.492271
-0.492271
421.013
421.013
1343.52
1343.52
-1.08387
-1.08387
-0.623187
-0.623187
-59.7044
-59.7044
53.4318
53.4318
1206.23
1206.23
259.562
259.562
0.659948
0.659948
-0.324832
-0.324832
2.74492
2.74492
0.754321
0.754321
-0.407038
-0.407038
3.0677
3.0677
244.948
244.948
244.948
807.308
807.308
807.308
-1.2097
-1.2097
1417.09
1417.09
-44.3072
-44.3072
164.847
164.847
2.40148
2.40148
2.33015
2.33015
1526.08
1526.08
1107.46
1107.46
1107.46
256.48
256.48
-1.2129
-1.2129
-1.74905
-1.74905
-33.5204
-33.5204
1342.37
1342.37
0.475477
0.475477
-1.58875
-1.58875
1564.4
1564.4
87.2301
87.2301
-59.5794
-59.5794
-1.88953
-1.88953
1038.04
1038.04
1542.68
1542.68
134.652
134.652
136.467
136.467
1418.19
1418.19
-0.56787
-0.56787
417.833
417.833
1.45689
1.45689
-3.02203
-3.02203
-0.715072
-0.715072
2.98326
2.98326
-0.234636
-0.234636
605.488
605.488
308.184
308.184
-62.3288
-62.3288
2.51524
2.51524
-3.21307
-3.21307
-15.1438
-15.1438
-1.46169
-1.46169
-0.227601
-0.227601
32.6533
32.6533
704.502
704.502
0.958705
0.958705
-46.8551
-46.8551
6.61245
6.61245
-0.843602
-0.843602
-0.0602569
-0.0602569
-45.912
-45.912
-3.71655
-3.71655
-1.62092
-1.62092
-3.69534
-3.69534
159.348
159.348
1035.14
1035.14
1035.14
10.1172
10.1172
1097.58
1097.58
679.245
679.245
1489.32
1489.32
743.663
743.663
0.468596
0.468596
196.821
196.821
-3.36864
-3.36864
0.895479
0.895479
-6.49202
-6.49202
-4.91021
-4.91021
1200.22
1200.22
1099.25
1099.25
-59.7848
-59.7848
-59.7848
903.374
903.374
242.625
242.625
-4.18475
-4.18475
177.197
177.197
-0.746025
-0.746025
-0.491694
-0.491694
2.37634
2.37634
-45.073
-45.073
-5.07962
-5.07962
-0.609887
-0.609887
-37.2422
-37.2422
802.051
802.051
216.924
216.924
-3.78277
-3.78277
-2.85913
-2.85913
12.6193
12.6193
-2.06629
-2.06629
-0.830395
-0.830395
187.033
187.033
1515.48
1515.48
332.902
332.902
3.76652
3.76652
485.376
485.376
-59.814
-59.814
20.5796
20.5796
1574.84
1574.84
1574.84
-3.47743
-3.47743
-5.96965
-5.96965
160.063
160.063
908.602
908.602
908.602
-1.05428
-1.05428
643.802
643.802
-3.10113
-3.10113
1296.79
1296.79
866.139
866.139
1287.46
1287.46
-5.71407
-5.71407
-0.691072
-0.691072
-0.290228
-0.290228
-0.729504
-0.729504
36.5029
36.5029
993.69
993.69
191.22
191.22
202.477
202.477
-0.868157
-0.868157
-3.13997
-3.13997
900.442
900.442
1131.89
1131.89
-35.1297
-35.1297
-6.50114
-6.50114
-20.4859
-20.4859
169.746
169.746
2.53018
2.53018
-0.484204
-0.484204
33.2464
33.2464
-0.397871
-0.397871
21.4858
21.4858
-0.760487
-0.760487
-11.6332
-11.6332
1209.24
1209.24
918.853
918.853
1522.24
1522.24
321.548
321.548
1223.66
1223.66
3.24217
3.24217
-1.31428
-1.31428
-0.173032
-0.173032
22.4331
22.4331
-1.34864
-1.34864
1463.88
1463.88
893.311
893.311
1140.5
1140.5
1140.5
3.09806
3.09806
141.511
141.511
671.857
671.857
0.113988
0.113988
-2.07621
-2.07621
1099.71
1099.71
-6.37042
-6.37042
1111.8
1111.8
60.5796
60.5796
0.536886
0.536886
26.0867
26.0867
-2.88677
-2.88677
746.651
746.651
1533.92
1533.92
-3.46391
-3.46391
1302.32
1302.32
-0.719145
-0.719145
-2.96948
-2.96948
1207.74
1207.74
1207.74
-3.96182
-3.96182
-2.40435
-2.40435
2.34127
2.34127
-3.786
-3.786
1082.84
1082.84
8.32122
8.32122
-2.34339
-2.34339
1164.56
1164.56
-0.794403
-0.794403
1337.37
1337.37
2.36168
2.36168
139.724
139.724
2.1261
2.1261
-1.24506
-1.24506
6.33718
6.33718
-12.2783
-12.2783
-6.27558
-6.27558
181.483
181.483
62.2503
62.2503
-0.383976
-0.383976
507.639
507.639
-3.98619
-3.98619
1522.6
1522.6
1068.94
1068.94
-0.910583
-0.910583
391.031
391.031
1252.26
1252.26
-0.885869
-0.885869
-2.51902
-2.51902
1484.36
1484.36
2.03148
2.03148
2.10064
2.10064
-4.67503
-4.67503
-0.699863
-0.699863
29.1529
29.1529
2.70007
2.70007
47.4074
47.4074
0.535458
0.535458
-4.4646
-4.4646
-0.778007
-0.778007
1408.85
1408.85
1.98369
1.98369
1351.89
1351.89
-2.82573
-2.82573
-1.34714
-1.34714
790.913
790.913
1.0426
1.0426
2.36498
2.36498
1110.5
1110.5
372.355
372.355
142.98
142.98
1573.05
1573.05
-2.30941
-2.30941
1317.33
1317.33
-0.819932
-0.819932
1100.68
1100.68
-6.38507
-6.38507
673.553
673.553
2.42272
2.42272
27.2545
27.2545
-2.27093
-2.27093
-2.19106
-2.19106
2.5007
2.5007
3.42821
3.42821
-5.07561
-5.07561
2.0246
2.0246
7.39971
7.39971
28.7704
28.7704
-4.1057
-4.1057
-1.96756
-1.96756
11.8421
11.8421
306.22
306.22
-0.903646
-0.903646
17.8161
17.8161
-69.1944
-69.1944
-2.18648
-2.18648
-2.71508
-2.71508
1.84079
1.84079
0.597467
0.597467
-0.554964
-0.554964
-0.71941
-0.71941
1100.65
1100.65
153.919
153.919
920.184
920.184
-1.82285
-1.82285
-0.641052
-0.641052
2.15357
2.15357
55.9667
55.9667
-5.43098
-5.43098
1556.38
1556.38
2.12974
2.12974
449.741
449.741
1.76654
1.76654
-6.24321
-6.24321
-60.1017
-60.1017
-60.1017
77.1412
77.1412
1.86935
1.86935
-1.81528
-1.81528
-1.27616
-1.27616
1415.06
1415.06
-0.850955
-0.850955
614.66
614.66
-49.7446
-49.7446
1384.85
1384.85
1384.85
2.55864
2.55864
-1.44131
-1.44131
1.33236
1.33236
131.822
131.822
169.8
169.8
7.15252
7.15252
2.16465
2.16465
-6.4455
-6.4455
-6.14268
-6.14268
58.2719
58.2719
2.36297
2.36297
-0.983084
-0.983084
-1.7993
-1.7993
2.41783
2.41783
-1.18318
-1.18318
-1.83271
-1.83271
6.5409
6.5409
-1.28445
-1.28445
1204.92
1204.92
2.97828
2.97828
-1.78447
-1.78447
-1.22772
-1.22772
-4.08125
-4.08125
2.05574
2.05574
2.41795
2.41795
2.4438
2.4438
-0.861601
-0.861601
2.34381
2.34381
2.2499
2.2499
-5.02783
-5.02783
3.19793
3.19793
-1.69525
-1.69525
10.6904
10.6904
-6.14077
-6.14077
2.80107
2.80107
1059.09
1059.09
13.7936
13.7936
78.3537
78.3537
1545.16
1545.16
0.920031
0.920031
1534.62
1534.62
1534.62
4.88893
4.88893
-0.79862
-0.79862
181.966
181.966
2.20602
2.20602
-1.87705
-1.87705
2.07669
2.07669
114.458
114.458
1.17539
1.17539
4.41549
4.41549
21.5962
21.5962
-1.45732
-1.45732
-1.67185
-1.67185
2.27747
2.27747
-0.31678
-0.31678
-0.818438
-0.818438
1.97982
1.97982
2.53637
2.53637
2.30395
2.30395
177.012
177.012
1.97474
1.97474
1.48232
1.48232
81.4169
81.4169
-6.16938
-6.16938
-0.169704
-0.169704
20.8356
20.8356
2.1939
2.1939
-0.669301
-0.669301
-1.3414
-1.3414
2.39399
2.39399
-0.722421
-0.722421
1424.45
1424.45
-6.85316
-6.85316
0.725631
0.725631
-0.809
-0.809
3.88087
3.88087
-5.91422
-5.91422
2.48061
2.48061
1.23821
1.23821
2.00396
2.00396
2.58559
2.58559
2.61913
2.61913
-0.637738
-0.637738
2.3073
2.3073
-1.60865
-1.60865
3.5976
3.5976
2.28434
2.28434
2.23241
2.23241
-1.51023
-1.51023
-1.47074
-1.47074
-1.08204
-1.08204
0.0277762
0.0277762
2.33255
2.33255
4.40263
4.40263
1519.38
1519.38
-1.46782
-1.46782
-1.47652
-1.47652
427.296
427.296
2.16124
2.16124
12.8816
12.8816
2.31714
2.31714
-1.4237
-1.4237
2.62437
2.62437
2.14099
2.14099
-1.36572
-1.36572
-0.876071
-0.876071
-0.946008
-0.946008
2.21371
2.21371
77.4348
77.4348
1.88747
1.88747
1.68078
1.68078
2.00535
2.00535
491.536
491.536
-6.07585
-6.07585
-0.457979
-0.457979
2.26947
2.26947
-1.336
-1.336
-0.828708
-0.828708
-1.29916
-1.29916
84.0787
84.0787
616.826
616.826
-0.921472
-0.921472
2.4741
2.4741
7.53976
7.53976
81.7241
81.7241
2.30777
2.30777
-6.62632
-6.62632
2.18046
2.18046
2.47732
2.47732
3.37161
3.37161
1.33508
1.33508
-4.99122
-4.99122
2.36643
2.36643
2.35702
2.35702
1.89617
1.89617
2.089
2.089
1511.69
1511.69
2.39407
2.39407
-0.81922
-0.81922
-1.10442
-1.10442
2.39386
2.39386
9.43812
9.43812
1502.1
1502.1
0.929959
0.929959
-2.25283
-2.25283
2.44073
2.44073
2.34548
2.34548
-0.753715
-0.753715
2.24418
2.24418
3.16676
3.16676
2.43548
2.43548
2.46692
2.46692
2.37443
2.37443
1533.23
1533.23
742.4
742.4
1.94544
1.94544
2.29675
2.29675
-49.6854
-49.6854
2.28615
2.28615
94.764
94.764
2.43502
2.43502
-0.728949
-0.728949
-1.84195
-1.84195
-0.896284
-0.896284
2.13151
2.13151
-1.02235
-1.02235
2.36892
2.36892
2.89687
2.89687
2.07014
2.07014
-1.00704
-1.00704
1.66719
1.66719
2.48376
2.48376
7.63171
7.63171
-1.18479
-1.18479
2.36334
2.36334
2.11102
2.11102
0.128055
0.128055
-6.20736
-6.20736
1.93755
1.93755
2.40679
2.40679
2.41359
2.41359
-1.19393
-1.19393
2.38607
2.38607
-0.847076
-0.847076
1499.1
1499.1
3.76083
3.76083
2.27228
2.27228
1437.13
1437.13
2.41686
2.41686
2.39789
2.39789
-1.17146
-1.17146
1.5139
1.5139
-0.918507
-0.918507
1.16947
1.16947
2.32451
2.32451
2.41314
2.41314
-1.15266
-1.15266
85.6239
85.6239
1510
1510
2.22287
2.22287
-6.57441
-6.57441
498.386
498.386
-0.826959
-0.826959
2.45948
2.45948
2.38896
2.38896
2.16922
2.16922
-1.10381
-1.10381
2.44756
2.44756
-1.5457
-1.5457
2.13747
2.13747
0.78614
0.78614
86.6775
86.6775
2.88289
2.88289
2.42201
2.42201
1513.62
1513.62
-1.06116
-1.06116
-0.765238
-0.765238
-2.47617
-2.47617
2.12415
2.12415
23.061
23.061
-0.954595
-0.954595
2.46029
2.46029
0.346859
0.346859
8.84815
8.84815
2.42108
2.42108
-0.262955
-0.262955
2.57893
2.57893
-0.93625
-0.93625
2.34398
2.34398
2.25227
2.25227
2.4285
2.4285
2.74596
2.74596
1538.46
1538.46
2.46667
2.46667
-1.01089
-1.01089
2.31423
2.31423
2.18087
2.18087
2.20427
2.20427
2.74695
2.74695
2.30516
2.30516
-1.02097
-1.02097
2.15513
2.15513
-0.5551
-0.5551
2.42414
2.42414
3.18111
3.18111
2.28764
2.28764
2.09889
2.09889
0.460987
0.460987
82.9789
82.9789
2.45148
2.45148
1.87322
1.87322
2.30738
2.30738
-0.768568
-0.768568
2.79344
2.79344
2.38797
2.38797
2.35611
2.35611
2.43352
2.43352
-1.02564
-1.02564
-0.861253
-0.861253
1.75526
1.75526
1499.12
1499.12
2.38124
2.38124
-0.026184
-0.026184
2.27634
2.27634
2.23336
2.23336
2.22451
2.22451
-0.763813
-0.763813
2.41657
2.41657
-1.7517
-1.7517
-0.91218
-0.91218
-0.797046
-0.797046
-5.69494
-5.69494
-0.515935
-0.515935
2.42245
2.42245
2.43982
2.43982
-0.991726
-0.991726
-0.972399
-0.972399
0.930285
0.930285
1.24501
1.24501
2.34075
2.34075
78.2836
78.2836
1.52306
1.52306
1560.76
1560.76
-0.955131
-0.955131
2.43314
2.43314
1361.85
1361.85
82.9922
82.9922
-2.34129
-2.34129
2.6009
2.6009
2.30572
2.30572
-0.906549
-0.906549
2.41923
2.41923
-0.991628
-0.991628
2.24131
2.24131
2.26511
2.26511
-0.726614
-0.726614
2.35264
2.35264
2.53885
2.53885
3.3173
3.3173
2.4281
2.4281
2.47415
2.47415
2.25282
2.25282
2.61331
2.61331
-0.937317
-0.937317
2.27371
2.27371
2.29623
2.29623
2.42962
2.42962
2.19463
2.19463
1565.17
1565.17
2.61904
2.61904
3.69979
3.69979
2.02165
2.02165
2.32375
2.32375
-0.839527
-0.839527
1228.88
1228.88
-0.965918
-0.965918
0.368944
0.368944
-0.706471
-0.706471
2.447
2.447
-0.316007
-0.316007
382.102
382.102
-62.4384
-62.4384
-62.4384
2.43243
2.43243
2.58743
2.58743
-0.841409
-0.841409
1.93268
1.93268
2.38888
2.38888
1532.88
1532.88
2.27091
2.27091
1.12303
1.12303
2.51277
2.51277
1.40338
1.40338
2.4182
2.4182
0.830521
0.830521
2.34127
2.34127
2.43374
2.43374
1.72541
1.72541
-0.672814
-0.672814
2.48583
2.48583
2.60771
2.60771
1559.08
1559.08
2.2767
2.2767
2.43427
2.43427
2.29157
2.29157
-0.800736
-0.800736
2.42796
2.42796
2.25796
2.25796
-7.12347
-7.12347
1536.4
1536.4
1525.09
1525.09
87.1912
87.1912
-1.29001
-1.29001
2.43427
2.43427
1513.66
1513.66
0.524326
0.524326
-0.550075
-0.550075
1.62351
1.62351
-0.388408
-0.388408