/*--------------------------------*- C++ -*----------------------------------*\
  =========                 |
  \\      /  F ield         | OpenFOAM: The Open Source CFD Toolbox
   \\    /   O peration     | Website:  https://openfoam.org
    \\  /    A nd           | Version:  8
     \\/     M anipulation  |
\*---------------------------------------------------------------------------*/
FoamFile
{
    version     2.0;
    format      ascii;
    class       surfaceScalarField;
    location    "0.3";
    object      phi;
}
// * * * * * * * * * * * * * * * * * * * * * * * * * * * * * * * * * * * * * //

dimensions      [0 3 -1 0 0 0 0];

internalField   nonuniform List<scalar> 
2805
(
-0.000578913
-0.000370074
0.000948989
0.000326136
-0.000905049
-0.00206904
-0.00032019
0.00238923
0.000178666
-0.00224771
-0.000379126
0.000705262
-0.00281727
0.00299594
5.2006e-05
-0.00286928
-0.00304584
0.00309784
-0.000602412
-0.00244343
-0.00176282
0.00144264
-0.00242022
0.00181781
-0.000934266
-0.00148596
0.00257982
-0.00113861
-0.0014412
-0.00118603
0.000251767
-0.00473681
0.00232072
0.00241609
-0.00361946
-0.00111736
0.000912366
0.00166745
-0.00177472
0.00058869
-0.00106062
0.000690548
-0.000702094
-0.00107263
0.00149023
0.00132283
-0.00281306
0.00283297
-0.00256241
-0.000270559
0.000610084
0.000456738
-0.00106682
-0.00163345
0.000931356
0.00193474
0.000898231
-0.000746877
-0.00173355
0.00248042
0.00145555
-0.00220242
0.00026029
-0.00113644
0.000876151
0.000263446
0.000908017
-0.00117146
-0.000219272
-0.000731714
0.000950986
-0.000488711
0.00109879
-0.000527666
0.0024624
-0.00138823
0.00158001
-0.000191784
0.00202387
-0.0011115
-0.000891777
0.00115207
0.000396207
6.05312e-05
0.0020808
-0.00260847
-0.000706421
0.000969867
0.000790058
-0.00100933
0.00153516
0.00266425
-0.000583451
0.00240141
-0.000911179
0.000930707
-4.76621e-05
-0.00101916
8.39141e-05
0.000554222
-0.000638136
0.000769421
0.000702005
-0.00147143
0.00117388
-0.00118119
7.31266e-06
0.00113737
0.00135674
-0.00249411
0.00140342
-0.00245366
0.00105024
-0.00230474
0.00119164
0.0011131
0.00103896
-8.22285e-05
-0.000956735
0.0012628
-0.00212012
-0.000442293
-0.000361248
0.00140021
0.000912218
-0.00146524
0.000553024
-0.0026546
0.00011326
0.00122128
-3.65224e-05
0.00125781
-0.001658
0.00077612
0.000881877
0.000206529
-0.000254192
-0.00299748
-0.000621974
0.000270598
-6.40688e-05
-0.00102008
0.000623606
0.000396478
0.000580183
-0.00094143
-0.0010828
0.00243954
-0.00446307
0.00286417
0.0015989
0.000154883
0.000241324
0.00167744
-0.000902337
0.000820109
-0.000661509
0.000710539
-4.903e-05
-0.0041848
0.00118731
-0.000230026
-0.00145486
0.000723142
-0.000638455
-0.000816401
-0.000155165
-0.000939019
0.00109418
0.00117118
-0.00225398
-0.00175414
0.00111569
-0.00255957
6.5459e-05
-0.000631739
0.000199626
-0.00223903
0.00203941
0.00210649
-0.000650945
-0.000520039
0.000287889
0.00023215
0.00171362
-0.00039079
-0.000439242
-0.000105055
0.000259939
-0.00117296
-0.00067068
0.0029914
-0.000901327
0.000244328
-0.000905838
-0.00170866
-0.00275441
0.000727543
0.00137895
0.00161422
0.00190128
-0.000792136
-0.00110914
-0.00102665
0.00127098
-0.000310165
0.000890348
-0.00135659
0.00252777
0.00256301
-0.00236338
-0.00175867
0.000100674
-0.000176073
2.09083e-05
-0.000793505
0.00192577
-0.00113226
0.000686969
-0.000713446
-0.00104522
0.00131704
-0.000589499
0.000383456
0.00151782
-0.00267229
0.00160862
0.00106367
0.000696195
-0.00203576
0.00133956
-0.000746055
0.00112951
0.00128935
-0.000513227
0.000822087
-0.00332829
0.00197171
0.000988438
0.000689
-0.00108555
0.000294461
-0.000691712
0.000397252
-0.000821626
-0.00173795
0.000838954
-0.00122974
0.00159573
0.00284109
-0.00395845
-0.00027072
0.000706523
-0.000435803
-0.00307561
0.000538919
-0.00097816
-0.00308674
0.00293618
0.000150568
-0.00162142
-6.68837e-05
0.00054827
0.0023159
0.000424335
0.000415272
-0.000839607
4.34323e-05
-0.000982452
0.000402706
-0.00215685
0.00181052
-0.000923851
0.00249789
-0.00157404
-0.00128196
-0.00204634
0.00262196
-0.000638343
-9.35023e-05
0.000731845
-0.000225579
0.00194977
0.00247857
-0.000960749
0.00134676
-0.000376888
-0.0015517
-8.17499e-05
6.65182e-05
0.00126658
-0.00363653
0.000910914
-0.000910914
-0.00109101
0.00109101
-0.00107362
0.00266935
-0.00154242
0.00061857
-0.00032172
0.000534466
0.00035982
0.000929527
0.000509734
-0.000780455
2.01177e-06
0.000285877
-0.00308674
0.000960033
-0.000916601
0.000750335
0.00187163
0.00192232
0.00104351
-0.000628242
0.00262693
0.000309246
-0.00150915
-0.00331057
0.00202861
-0.000330591
2.16123e-05
0.000308978
-0.000299696
-0.000392017
0.00045584
0.00341968
-0.00315169
6.49486e-05
-0.000391597
0.000243239
0.000148358
0.00163896
0.0022336
-0.00119009
0.000868978
0.00175795
-0.00127973
-0.00179588
0.000849775
0.000466201
0.00111381
-0.00126945
0.00319177
-0.00177265
-0.00089964
0.00141772
-0.00138802
0.00150846
-0.000261985
-0.00124648
0.000651291
7.25944e-05
-0.000121624
0.000364933
-0.000304402
0.000595607
0.00282407
0.000783582
-0.000842684
5.91025e-05
-0.000747754
0.00358884
-0.00214805
0.00055442
0.00159363
0.0016661
0.000567502
-0.000905097
-0.00154856
2.88986e-05
-0.00121009
0.000193648
0.000766385
-0.000330258
0.000625187
-0.000294929
-0.00332607
-0.00127756
0.000885545
0.000472914
-0.000794634
0.00182839
-0.00151351
-0.00179706
0.00378738
0.0032206
-0.0015545
-0.00315169
-0.000115396
0.001234
-0.0011186
0.00102264
0.000485826
0.00130648
-0.000283843
0.00191759
-0.00143177
-0.00128279
0.00277552
-0.00113655
0.00256745
-0.000739065
0.000453324
0.000942097
0.00284528
0.00149557
-0.00130193
-0.000382134
-9.35026e-05
-0.00321154
5.98466e-05
0.00218934
-0.00278667
0.0008698
0.00191687
0.00214274
0.00107786
0.000509791
0.00201133
0.00132897
-0.000969152
0.000210928
0.00350955
-0.00157777
-0.000579077
-0.000417314
-9.84403e-05
0.00158543
-0.00212779
-0.000658877
0.00107875
0.000689665
0.000544337
-0.00298793
0.00147442
0.000917142
-0.00202301
0.00110587
0.0039978
-0.00185506
0.000562138
0.00135546
-0.000733396
-0.000731845
0.00399786
-0.00121563
-0.00278224
0.000463796
0.00204426
-0.0013546
2.16123e-05
0.00286523
-0.00199543
0.00110862
0.00240094
0.00330402
-0.00171859
-0.00321154
0.00184467
-0.00259243
0.00173957
-0.00128624
0.00117242
0.00169281
0.000214454
0.00128112
0.0008632
-0.000308978
0.000888846
0.00138301
-0.000304264
0.00113975
-0.00103236
-0.000855506
4.77136e-05
-0.00214173
-0.00106981
0.00240454
0.00159326
0.00105278
-0.00167542
-0.00165064
-0.00355806
0.00143027
0.00150041
0.000980018
-0.000577565
0.00206947
-0.00149191
-0.000701157
0.00249163
-0.000133655
0.00174952
0.000496959
0.000920757
0.000978965
0.00179375
0.000668652
0.000526941
-0.00134334
0.00110043
-0.00201161
0.000718978
-0.00161862
0.00100886
0.000918227
0.00204959
-0.00148745
-0.000389585
-0.000357613
-0.0014641
0.00207067
-0.000606571
0.00123654
0.00276133
-2.34926e-05
-0.00221554
-5.2497e-05
0.0012591
0.000785161
0.00292441
0.00181925
-0.000743874
-0.00214173
-0.00292429
0.00459149
-0.00218695
0.000179499
-0.00115766
-0.00191222
-0.00107571
-0.00249789
0.000356158
0.000885709
0.00160592
0.001162
0.00382035
-0.00207083
-0.000272509
-0.000736821
0.00274927
-0.00149017
-0.00326896
0.00127353
-0.00011664
-0.000249965
0.000493204
-0.00217953
-0.00137853
0.00188568
-0.00167123
-0.000858795
-0.00183869
0.00120582
0.00295285
-0.00178043
0.000152137
0.00117683
0.000663318
-0.000715815
-0.00143207
0.0020847
-0.000652633
0.00265216
-0.00155173
0.00114556
0.00180729
0.000605375
-0.000736576
-0.00041308
-0.000297613
0.000807346
0.00265336
0.00193813
-1.28122e-05
0.000717284
-0.000704472
-0.00347248
0.00121096
-7.45528e-05
0.00154903
0.00196529
0.0010033
0.000254432
0.000562682
0.00148691
0.0040299
0.000223901
-0.000473867
-0.00150125
-0.000701173
0.00156863
-0.00212184
0.000553204
0.00167179
0.000638597
-0.00110796
-0.00238164
0.000469424
0.00053301
-0.000865124
0.00246402
0.000131639
-0.000144451
-0.00178844
0.000827902
-0.00140698
0.00208334
0.000665939
0.00211842
0.00430261
-0.00233732
0.0048771
-0.00222375
0.00195907
-0.000454376
7.66701e-06
-0.000237086
0.00113532
0.000407017
0.00147867
0.0019202
-0.00409973
-0.00237792
0.00356523
0.00409058
-0.00177468
0.000432522
-0.000730134
-0.000841517
0.00177222
-0.000307489
0.000455847
0.00294612
-0.00167259
0.00153669
0.00098576
-0.00184127
-0.00100141
0.00211092
-0.0011095
0.00054879
0.00100024
0.00224043
-0.00163506
-0.000863906
0.000553742
0.00332899
-0.00124566
-0.00337264
0.00153395
0.00116569
0.00287103
-0.0001097
0.000952233
0.00480435
0.000480199
0.00215899
-0.00159631
0.00301527
0.00186183
0.00211567
0.00299737
-0.0018518
0.000708375
-0.00196987
-0.000693259
0.00253793
-0.000153019
0.00153197
0.000121624
-0.000188508
-0.00145244
-0.00168364
-0.000522989
0.00119164
0.00273814
0.00135244
0.000360215
-0.000632858
0.00106522
0.00230164
0.00201992
0.000894794
0.00210257
-0.00051544
0.0020059
0.00134739
0.00246702
0.000506261
-0.000374622
0.00160956
0.00339678
-0.00093276
0.00522029
-0.00310462
-0.000663113
0.00164313
0.000612327
-0.00222771
-0.00015393
-0.000393212
-0.000781296
-0.000761124
0.000809844
-0.00166864
0.00177137
-0.00136435
-0.000100276
0.000868978
0.00174461
0.000373807
0.00257172
-0.0020843
-0.000487418
0.00162211
0.00110911
0.00275018
0.000578817
1.97651e-05
0.000486495
0.000691461
-0.000142671
0.00486796
0.00479803
-0.00178275
0.00107163
-0.000919493
0.0020417
-0.0020652
0.00292649
-0.00139254
0.000184422
0.000178909
-0.000363331
0.000863745
0.0012539
0.000535622
0.00162337
0.000356178
-0.000134541
-0.000377618
0.00132985
0.00280796
-0.00164227
-0.00214606
-0.00132643
-0.00144745
0.000710626
0.000647069
-0.00016687
-0.000537587
0.00103455
0.00163491
-8.01339e-05
0.00040753
0.000480293
-0.000655037
0.000174744
0.00299654
0.000994382
0.000956157
0.00223764
-0.00157241
-0.000665224
0.00176334
0.000814024
0.000528014
-0.00017241
0.0015198
0.00118303
0.000375777
0.000117427
0.00306953
-0.00171709
0.00349568
-0.000745506
-0.000597135
0.000956924
0.00252787
-0.000521963
0.0019052
0.000272446
0.00312116
-0.00141704
-0.000810671
0.00147072
0.00174208
0.00272595
-0.00183116
-0.00296856
0.00151612
0.000598779
-0.000118486
-0.00190634
0.00226656
0.00148424
-0.00193862
0.000631618
-1.9291e-05
0.00213066
-0.000919704
-0.000181676
0.000235128
0.00153624
0.0015951
0.00280375
-0.00118165
0.0031447
0.00165333
0.00336926
-0.000671117
-0.000407768
0.00151688
0.000678639
-0.000658873
0.0013766
-0.00112217
0.00064165
0.00219403
-0.00165841
-0.000357021
-0.000931032
0.000701006
0.000172208
0.000519253
0.00218588
0.000883648
-0.00245792
0.0020647
-0.00173574
0.00473228
0.00130333
0.00108666
0.000464748
0.000922083
-0.00028948
0.00128386
0.0014045
-0.00209776
-0.000703787
0.00111132
-0.00322177
0.000685902
0.000330759
2.36014e-05
-0.00200553
0.00264598
-0.00139208
0.00231108
-0.0019549
0.000279536
0.00188275
-0.000247843
0.00123032
-0.000289589
0.00051349
0.00100371
-0.00106335
0.00215138
0.000689401
0.000124623
0.00153291
4.90793e-05
0.00102255
-0.00264194
0.0012494
8.57264e-05
0.00138499
0.000868347
-0.000595901
0.00256227
-0.00160611
0.00117608
-0.00180894
0.000245885
0.00136079
0.00176656
0.00234482
-0.000749717
0.00116318
0.00067011
0.00104091
0.00163352
-0.000191357
0.000494522
-0.000613009
-0.00112582
0.00186011
-0.00194024
0.000731108
0.0036284
0.00170685
0.000960488
-0.00147593
-0.00075173
0.000497539
0.00160261
0.00428886
-0.00114416
-0.00056575
0.000384075
-0.000439744
0.000611952
0.000209474
-0.000457404
0.000352349
0.00183665
-0.00160152
-0.00115336
0.00224002
0.00294953
0.00160379
0.000590241
0.000622868
0.000299215
0.000972122
-0.000507374
0.00029198
-0.000581569
-0.00107528
0.000443538
-0.000492558
0.00239745
-0.0017558
-0.000847465
0.00117822
-0.000895957
-0.00055149
-0.000227481
0.000851087
-0.0014798
0.00236345
0.000636352
-0.00205339
0.000436398
0.00143221
-0.000128872
-0.000527724
0.000647678
-0.000624077
-9.47346e-05
0.00132505
-0.000272983
-0.000386797
0.000217417
-0.00117415
0.000207987
0.000305503
-0.000220406
0.000747491
-7.1229e-05
-0.00108273
0.00118436
0.000516328
0.000438848
-7.85106e-05
2.30773e-05
0.000480646
0.000376221
0.000442545
0.000142165
0.00129026
0.00183722
-0.000476434
0.00105138
-0.00164852
0.00201188
-0.000848702
-0.00071776
0.000413358
0.000168553
0.00238925
-0.00138554
0.00047961
0.000226914
0.0010503
-0.000380188
-0.00154817
0.0018277
0.00263376
0.0010875
-0.000956465
1.50342e-05
-0.000577738
-0.00241
0.00101791
-0.000297657
0.000730179
0.00209434
-0.00184846
-0.0004662
0.000987003
0.000615603
3.46693e-05
6.67876e-05
0.000851439
-0.000739048
-0.000730614
0.000783141
0.000858519
-0.00288578
0.00155935
0.000760223
0.000530818
-0.000146743
-0.000742782
-0.000121125
-0.0011606
0.00316496
0.00112391
-0.00086659
0.000639109
0.000795455
-0.000585981
-0.00111042
0.00105591
0.00151991
-0.00187693
-0.000305774
0.000744622
-0.000639699
0.000342042
0.00128622
0.00147458
-0.000365411
-0.00240908
-0.000812697
0.000542925
0.00176277
0.000600678
0.00213822
0.000147129
0.00168952
0.000745828
-0.000730793
0.000592369
0.000258719
0.00229646
-0.00156535
0.000154099
-0.00242035
0.00103673
-0.000289239
-0.00117422
0.00412374
-0.000161683
-0.000846406
0.000459609
0.000214603
0.00163472
-0.000783433
0.000510451
-0.0019219
0.00173055
-0.00061161
0.00104801
-0.00177991
-0.000199316
0.000171378
3.04651e-06
0.000713439
0.000583765
0.000920019
0.000258204
0.000540656
0.00104796
0.00148401
-0.000299648
0.00088567
-0.000509449
0.000507455
0.000782805
0.000810914
-0.000761834
-0.00235297
0.00122715
0.000656541
-0.000650461
0.00205496
0.00106218
0.000476212
-0.000547441
0.00100758
0.00379155
-0.000433048
0.0017043
-0.000616793
-0.000520003
0.000373259
-0.000289026
0.00112306
-0.000303823
-0.000136417
-0.000995875
0.000418137
-0.000424547
0.00215356
-0.00171102
0.000855595
-0.000165584
0.00119214
9.40773e-05
-9.42005e-05
0.000585385
-0.000550716
0.000299689
0.000935657
-0.000392732
0.0017937
-0.00187221
0.000983774
-0.000297871
-0.000878389
0.000305107
0.00145954
-0.00208422
0.0015565
-0.0010244
0.000293787
-0.000854681
0.00048927
-0.00219915
0.00081361
-0.00118124
-0.0013043
0.00190498
0.00185477
-0.00109454
0.000902903
0.00297958
0.0017364
-0.000877884
0.000761074
-0.000255127
-0.000505947
0.00216468
-0.00138154
-0.000536266
0.000185091
0.000410551
-0.000945925
-7.41135e-05
0.000787553
-4.37914e-05
-0.00217439
0.00101379
-0.000344231
0.00126342
-0.00175598
0.000426208
0.000922584
-0.000266042
0.00196419
-0.0018101
-0.000640459
0.000441143
0.000655248
0.00039276
0.00170371
-0.000918864
0.000179816
0.000913453
0.00122663
-0.000178669
0.000708692
0.000599331
0.000686375
-0.000514997
3.79433e-05
-0.000606264
0.000926981
0.000394435
0.000366639
0.000697115
0.000425943
0.0014464
-0.00043882
0.000481167
-0.000107908
-0.000947238
0.00068359
-0.000504091
-0.000385098
-0.00131916
0.00153376
-8.32387e-05
-0.000889054
0.000456006
-0.000353673
0.000188508
-0.000305148
-0.000812897
8.21033e-05
0.00158944
-0.00144231
0.00210152
-0.00156086
0.000829606
0.000503523
-0.000803716
0.00024728
0.000556436
0.000529851
0.000550464
0.000791193
0.00064186
0.000142691
0.00148634
0.000418635
-0.000159293
-0.000625077
0.00154722
-0.000691623
9.19892e-05
-0.000525665
0.000253425
0.000272241
-0.00243188
-0.000455847
0.000573274
0.000746493
-0.000446804
-0.000399783
0.000135659
0.000390502
0.000906163
-3.25955e-06
-2.91325e-05
0.000840047
0.00197879
0.000211347
-0.000806205
0.000594858
0.00254589
-0.00130092
0.000749427
-0.000633081
6.61002e-05
-0.000847397
0.000167182
0.00146104
-0.000980389
0.000669334
0.00110967
-0.00176013
0.00201605
-0.00171094
0.000640121
-0.000810971
0.00046674
0.000176121
0.000532571
0.000772662
-0.000346454
-0.000913021
0.000376755
-0.000335862
0.000728622
-0.00158359
0.00148938
0.000451691
-0.000261857
0.000567359
0.0012248
-0.000297819
0.00010219
0.00201752
-0.00120391
0.000231495
0.000602064
-0.000457016
0.000843883
-0.000198556
0.0015162
-0.00180523
-0.000246397
0.00322598
4.67834e-05
0.000365165
0.00112546
-0.00128714
-0.000541264
0.000695565
0.000217888
0.00200447
-0.000990682
0.000550699
-0.000307447
0.000367135
-0.000475043
0.000823234
0.000785981
0.000752114
-0.000222263
0.000205956
0.000635978
-0.00137543
-0.00046578
0.00184121
0.000838256
0.000449607
-0.000493399
0.00128366
0.000574406
0.000216787
-0.000970276
0.00074987
0.00172764
-0.00181088
0.00117657
-0.000167096
-4.98219e-05
0.00136131
-0.0005317
0.000325859
0.00102655
-0.0014511
0.00200178
-0.00140245
0.000288842
0.000525665
-0.00064679
0.000528314
-0.000490371
-0.000806428
0.000406645
-0.000902349
0.00132098
-0.000879429
0.000273165
0.000571146
-0.000493041
5.72379e-05
-0.000561726
0.000402433
0.0036698
-0.00193183
0.000984588
-0.000502674
-0.000872964
0.00151482
0.000440921
0.00040566
0.00158274
-0.00103228
0.000669683
-0.000339688
-0.00173564
0.00138197
0.0018602
-0.00176821
0.000594487
-0.000458829
-0.000104198
0.000555889
0.000682618
-4.24979e-05
0.000428374
-0.000239777
-0.00117757
0.000275222
0.00197429
-0.00158379
0.00183332
-0.00183332
-0.00196246
0.00064679
-0.000643743
0.000462488
0.000266134
0.00025958
0.000342485
0.000756539
0.000441543
-7.44088e-05
0.000680376
0.000460356
-0.00117217
0.00133936
-2.54368e-05
0.0017324
0.00139213
-0.000722792
-0.000789068
0.000332052
-7.75885e-05
-0.00024626
0.0010266
-0.000182714
-0.000120182
0.000632325
-0.00040083
-0.000797955
0.000172878
0.00124532
-0.00163042
0.000405174
-0.000755254
0.000728778
0.000181314
0.00127972
-0.000555888
0.000357332
0.00118053
-0.000394546
-0.000524791
0.000476367
-0.000382423
0.000422731
0.000263344
3.49144e-05
0.000255765
-0.000539398
0.000283633
0.000642599
-0.000316741
-0.0011196
4.93279e-05
0.000597807
0.000305148
-0.00120647
7.64213e-05
-0.000835929
0.000670345
0.000104116
0.000148811
0.000145067
0.000598286
-0.000627418
0.000469935
0.000101211
0.000648827
-0.00137377
0.000519162
0.000482545
0.000615323
-0.000209663
0.00189978
-0.00169382
0.000743874
-6.02837e-05
0.00170056
-0.000590898
0.00185628
-0.00103305
0.000652377
0.001876
-0.00124003
-0.00136196
0.00131214
-0.000153455
-0.00178412
0.00124286
-0.000704547
0.000364858
-0.000260589
0.000173495
-0.000713314
8.02333e-05
2.65766e-05
0.000401797
0.000427437
-0.0018047
0.000814021
-0.000748605
0.000245932
-0.000280036
0.000546171
-0.000820115
0.000275852
-0.00022085
0.000473551
0.00150398
-0.00150398
-0.000540437
0.00125485
-0.000585168
-0.000416553
0.000369061
0.00024177
0.00143818
-0.00167796
-0.000205779
-0.000402149
0.000540199
-7.98436e-05
-9.90481e-05
0.000717419
-0.000618371
0.00187846
-0.00143754
-0.000281816
0.000131565
0.000561373
0.000119003
0.000298583
-2.26041e-05
0.000268295
0.000208072
-0.000438109
0.0003637
0.0010071
-0.000278324
0.00120098
-0.000871388
0.00114661
0.000425371
-0.000450808
0.000637795
0.000532059
0.00161407
-0.00169166
-0.00125132
0.00275529
0.000294678
2.47777e-05
0.000643743
-0.00056164
0.000657333
0.000330537
0.000612557
-0.000679491
0.000297068
-0.00148593
0.00123967
-0.000494507
0.000374325
0.000369506
0.000480157
-0.000445242
0.00137805
-0.000972876
-0.000182066
-0.000314633
-0.00103988
0.00118869
0.000229686
0.000337673
0.00184776
-0.00158442
0.000521515
-0.000417399
0.00156595
-0.00222483
-0.000684568
0.000159778
0.00111
-0.000461171
0.000945311
0.000396699
3.07384e-05
-0.000144659
0.000420511
-0.000438637
0.00170373
-0.0016544
0.000541425
-0.00036793
-0.000192236
0.000257139
-0.000517272
-8.60587e-05
0.000683563
-8.52767e-05
0.000398334
0.000147837
0.00133389
-0.00085134
0.000813168
-0.000173791
0.000517336
-0.000485634
0.000332179
0.000538724
-0.000296955
9.04814e-05
0.00027858
0.00124891
-0.00072975
0.000316855
0.000782922
-0.000188065
-0.000782291
0.000615196
-1.27369e-05
-0.00114676
0.000524831
0.000153936
0.000506019
-0.000207436
2.93481e-05
-6.38883e-05
0.000410006
-4.63066e-05
0.00107396
0.000304086
0.000202575
0.000315992
0.000298553
-0.000639641
0.000223088
-8.45004e-05
0.000106727
7.62727e-05
-0.00153921
0.00113707
-0.00218444
0.00173281
-0.00108043
0.000479203
0.000303719
0.000437083
-0.000106546
-0.000342574
-0.00119637
0.00117377
0.000840723
-0.00018339
0.000492779
0.00175484
-0.00128129
0.000562399
1.0376e-05
0.000124026
0.000249466
0.00012004
0.0016885
-0.000874477
-0.0014926
0.000901703
0.000655448
0.000928219
1.20727e-05
0.00172589
-0.00159432
0.000964077
-0.00035152
0.000170794
0.0011446
-0.000612539
-0.000896696
0.00044549
0.000138275
-0.000111308
0.000317297
0.00036101
-0.000615324
7.4887e-05
-0.000455546
0.000209064
-0.00125308
0.000536122
0.000280204
-0.00046497
0.000282905
-0.000299545
0.00161287
0.000397573
-7.67715e-06
-5.79316e-05
0.000315071
0.00174364
-0.00144897
-0.000267502
0.000415339
0.000153009
0.000502905
0.000229647
-0.0016138
0.000793685
-0.000580799
0.000266166
0.00033152
-1.4665e-05
0.00259261
-0.00142328
0.000220648
-0.000668489
0.000414847
-0.000421416
0.000408679
0.000476663
4.06737e-05
-0.000132791
0.000442967
-0.000413619
-0.000111947
-0.000264808
7.14871e-05
-0.00153499
0.00101772
0.000110968
0.000187586
0.000159228
-0.00058564
0.000147004
-0.00129727
0.00112348
-0.000362553
0.000224974
0.000464166
-0.000387893
0.000487039
0.00102769
-0.000502862
0.000561641
-0.000481408
-0.000967597
0.00107432
0.000468162
-0.000344136
0.000231007
0.0020998
-0.000820078
0.000820312
-0.000257913
0.000453493
-0.000282698
-0.00102988
0.000525792
0.000222025
-0.000437525
0.0002155
-0.000413728
0.000367421
0.00167123
-0.00151729
0.000500173
-0.000123501
-0.000527622
0.000442345
0.000415736
-0.000206672
0.00104847
-0.000845897
0.000820078
-0.000675011
-0.0020998
0.000980197
0.000217069
6.31348e-05
0.000468792
-0.000397922
0.000415154
-0.000544365
0.000201791
2.15508e-05
0.000352761
-0.000123114
0.000360173
-0.000444674
-0.0009356
0.000675011
-0.000173073
0.000326082
-0.000807167
0.000381311
0.000425856
-0.000433131
0.000321823
0.000353129
6.22097e-05
0.00122243
-0.000918342
0.000141997
-0.000278199
0.00118609
-0.000825081
-0.000525665
0.000505658
0.000202403
0.00158461
-0.000929158
5.05459e-05
-1.08608e-05
0.000231509
0.000393803
-0.00015462
-0.00107708
0.0010694
0.000504177
0.00161877
-0.001126
1.85347e-05
0.000905557
-0.000402651
8.02688e-05
-0.00114138
7.69052e-05
8.08756e-05
0.00112312
-0.000725545
-0.00134594
0.0010464
0.000109357
-5.04853e-06
0.000176724
0.000337486
0.00161981
-0.00130252
0.0005246
-0.000377596
0.000133038
-2.75741e-06
6.90535e-05
-0.000410075
0.000277284
0.000268255
-4.32813e-05
0.00114138
-0.00133361
0.000106233
0.000124774
0.000146089
-0.000980197
0.000759348
0.000791508
-0.000251969
-0.000539539
0.000402695
0.000170848
-0.000222464
-0.00099614
0.000150242
-0.000474886
-0.00152382
0.000649345
0.00024085
0.00104
-0.000625152
0.000286362
0.000249759
0.000682315
-0.000182142
-4.05835e-05
0.00133361
-0.0013975
0.000169367
-0.000791508
-6.67876e-05
0.000858296
-0.000496426
0.000133873
0.000424401
0.00154016
-0.00138093
0.000145141
-0.000730137
0.000391521
-2.40999e-05
-7.29578e-05
-0.000294635
0.000226288
0.000782587
-0.000313795
-0.000712592
0.000524527
-1.11512e-05
0.000267749
0.000298036
-8.82519e-05
-0.00115684
0.00103334
-5.31519e-05
0.000555803
-0.000113458
0.000426284
-0.000404733
0.000481408
-0.000406521
0.000175657
2.67463e-05
-0.000256912
0.000319122
-0.000111341
0.000253339
0.0013975
-0.00138543
0.00042844
-0.000377894
6.91698e-05
-9.7396e-05
0.000673289
-0.000759348
-0.000920099
0.00100097
0.000748953
-0.000682853
0.000120167
0.00041579
-0.000335521
-0.000380363
0.000225742
0.000314455
-0.00134972
0.000951793
0.000379936
-0.000416325
0.000411277
0.000943271
-0.000528117
0.000387581
-0.000278225
7.06197e-06
0.000169662
0.000372542
-0.00047159
2.28651e-05
0.000981174
-0.000830932
0.000342116
-0.000209078
0.00143632
-0.000534617
-0.000462757
0.000184558
-8.74326e-05
0.00129965
0.000675175
-0.000999884
0.000997127
0.000132376
0.00148269
-0.000978513
0.000305148
0.000407187
-1.33844e-05
0.000131836
0.000279974
-0.000133885
0.000624036
-0.000303319
-0.000221906
-0.000103079
0.00138543
-0.00131394
0.000356695
8.51459e-05
8.42215e-05
0.000366604
-0.00143701
0.000507851
6.10752e-05
-0.00094013
0.000109198
1.08971e-06
-0.000414339
0.000390239
0.000318119
9.95944e-06
0.000767831
0.00110373
-0.000877441
0.000839674
-0.000436979
0.000440768
-0.000306895
6.31716e-05
-0.00119619
0.000973721
0.00020541
-6.02691e-05
0.000662594
-0.000238192
2.3707e-05
0.000573274
0.000373661
3.78963e-05
0.000163599
5.20599e-05
0.00101694
-0.000718904
0.000561342
0.0014901
-0.00115262
0.000690894
-0.000211691
0.00157404
-0.000825083
0.000348799
0.00107103
-0.000803281
6.38908e-05
0.000435767
0.000111892
-0.000341867
0.000179078
0.00016279
0.000335939
-0.000408896
7.08956e-05
-3.06127e-06
-0.000787664
-0.000188157
0.000257327
0.000187587
-0.000418429
0.000123794
-0.00038022
0.000291968
0.00146155
-0.0012907
-7.70491e-05
0.000197216
-0.000162849
6.51814e-05
0.000371793
-0.000424945
-0.000233871
0.000850425
-0.0013162
0.000945558
-0.000631103
0.000943261
-0.000834064
0.000406522
-0.000337468
0.00019359
0.00131394
-0.00123704
0.000313341
5.78098e-06
-0.00105677
0.000969335
0.000733727
-0.000353791
9.26132e-05
0.00101497
-0.000851367
7.15249e-05
0.000213659
0.000911024
-0.000538482
0.000311557
-0.000116125
-0.000899418
0.000960493
-5.96408e-05
-0.000439548
0.000326089
0.000126518
5.85774e-06
0.000299956
3.71219e-06
0.000128124
0.000228171
-0.00132155
0.000846665
0.000984692
-0.000791103
8.06238e-05
0.000226653
0.000401229
-1.09897e-05
-0.000956872
0.000957962
0.00262302
0.000589899
8.7934e-05
-0.00134692
0.000368406
-0.0017491
-0.000343354
0.000240276
0.000907825
0.000107141
0.000296747
0.000653552
-0.000272241
4.38428e-05
0.000929085
-0.000715426
0.000133325
6.62491e-05
0.000550326
-0.000176665
7.37613e-05
-0.000839068
-4.42811e-05
0.00086209
-0.00054397
-0.000369758
-3.71035e-05
0.000312133
-7.29441e-05
0.000394578
0.0013678
-0.0010111
0.000172672
-0.00120008
0.000896764
-0.00114138
-0.000129977
-2.37161e-05
-0.000850067
0.000957209
0.000629175
-0.000280376
0.000137983
0.000711549
0.000230987
5.04045e-05
6.14877e-05
3.6213e-06
-0.00136688
0.000636738
0.000934547
-0.000801222
-0.000995064
0.000935424
-0.00121417
0.00123704
0.000791508
0.000365792
-0.000241999
0.00030095
-0.00077254
8.44792e-05
5.88977e-05
-0.000143546
0.000208727
-0.00108386
0.000921016
0.000241914
1.54125e-05
0.000862326
-0.000635672
-0.00011453
0.000275384
0.000449893
-0.000123803
-0.000759348
-0.000226361
-3.7103e-05
0.000746194
-0.000445244
0.000247696
-5.13865e-05
5.36704e-05
0.00039913
-0.000402191
-0.000298919
0.000182794
0.000402191
-0.000392232
0.00077183
-0.000460273
0.000337467
-0.000274296
-0.000378105
-0.000645801
0.00043411
0.000392232
-0.000368525
-0.00127394
0.00073932
0.000825083
-0.000596912
0.0001469
-6.53198e-05
0.000157933
-0.000561342
0.000463946
0.000368526
-0.000330629
0.00086275
-0.000724767
0.000330628
-0.000278568
0.000215181
6.02837e-05
-0.000246669
0.000186385
0.000278569
-0.000214678
5.62622e-05
-0.000442602
-0.000587281
6.15279e-05
0.000913194
4.40146e-05
0.000214676
-0.000143781
-0.000346082
0.000273138
-0.000351568
0.000117697
0.00022786
-4.6126e-05
-0.000876843
0.000950604
6.28038e-05
-0.000971715
0.000975336
0.000678911
-0.000382164
0.000149348
0.000556523
-0.000705871
0.000529912
-0.000217779
-0.000399129
0.00038814
0.000973296
-0.000929453
-0.000121274
0.000786365
-0.000555378
0.00124482
-0.000876411
0.000273227
-0.000178896
5.31767e-05
0.000207712
0.000143781
-7.22557e-05
-0.000599045
0.000505107
-0.00129277
0.000249536
-1.69944e-05
0.000104928
0.000150693
-5.86426e-05
0.00079374
-0.000646841
0.000218639
0.000233713
-0.00100917
0.00089464
-0.000249525
0.000131492
0.000118033
0.000857288
-0.000772809
0.00134885
-0.00116126
6.89733e-05
-0.000994531
0.000957428
-7.37466e-05
0.000586704
-0.00031132
-0.00038814
0.000364424
-0.000360793
0.000236989
-0.000191348
0.000206761
-0.000364424
0.00032732
0.000704892
-0.000477033
-0.000427272
-0.00113355
3.63516e-05
-0.00121212
0.000373053
0.0010827
-0.000161688
7.22553e-05
-6.0062e-06
1.58128e-06
-0.000274674
0.000228548
1.73785e-05
-0.000327321
0.00028304
0.000439243
-0.000166016
4.44931e-05
2.11508e-05
0.00020454
-8.76542e-05
5.81414e-05
-2.6979e-05
-0.00117723
0.000807467
0.000221465
-1.91949e-05
0.000330905
-0.00070901
0.000856342
0.00063327
-0.000302365
-0.000280462
-6.67307e-05
0.000149515
0.000901302
0.000772808
-0.00071128
-0.000120149
0.000173819
0.000596912
-0.0003892
0.000359761
-0.000122772
0.000719896
-0.000569203
0.000188026
0.000274296
-0.000215398
0.0010254
-0.000435498
0.000498383
-0.000248846
-0.000707014
-0.000656033
-0.000273243
-0.00111972
0.000243303
-0.000746661
-0.00028304
0.000231654
0.000621317
-0.000402679
-0.000299318
5.73194e-05
0.000416635
-0.00019517
-0.000289862
0.000202208
7.30551e-05
0.000193745
3.77848e-05
-0.000181621
-0.00103296
0.00124814
6.00542e-06
5.02568e-05
0.000187063
-6.13136e-05
-0.000906447
0.00114016
-0.000221351
0.000194372
-0.000586725
0.000313482
-0.000995036
0.000921289
-0.000463946
0.000342672
0.000538419
-0.000333879
0.000167789
-0.000999728
0.000838041
0.000144285
0.000711281
-0.000642308
0.000343607
-0.000149862
0.00102309
-0.000779791
-0.000231654
0.000173011
-1.45906e-05
4.89706e-06
0.000148437
-0.000105088
-7.30095e-05
0.000135813
-0.000291512
0.000168741
-3.76082e-05
0.000603968
-0.000354209
6.02837e-05
-0.000159646
0.000177025
0.00064256
-0.000493045
0.000458827
-0.000271764
0.000960385
-0.000958804
-8.93048e-05
0.0003892
-0.000201174
-0.000901301
0.000937653
-0.000235336
0.000174022
-0.00021687
0.000384659
-0.000937654
0.000958805
-0.000173011
0.000106281
-0.000294282
0.000115385
-0.000152615
-0.000960386
0.000941191
0.000135741
0.000116647
0.000280444
-0.000111703
0.000317615
-0.000169179
0.000247813
-0.000994474
-4.0964e-05
7.3357e-05
0.000124949
0.00105888
-0.000202536
-5.02568e-05
9.47499e-05
0.000130583
3.19191e-05
-0.000772808
0.000642308
-0.000569253
0.000107205
0.000778415
0.000100746
0.000112895
-0.000479918
0.00121924
-0.000901344
0.000121553
-0.000184153
0.000169562
-0.00113601
0.000708743
-0.000236659
0.000147354
-0.00108352
0.000603603
-0.000653531
1.41729e-05
-0.000106281
7.09309e-05
3.53501e-05
0.000373184
-0.0010802
-0.000328548
0.000331581
0.000292454
-0.000342672
0.000190057