/*--------------------------------*- C++ -*----------------------------------*\
  =========                 |
  \\      /  F ield         | OpenFOAM: The Open Source CFD Toolbox
   \\    /   O peration     | Website:  https://openfoam.org
    \\  /    A nd           | Version:  8
     \\/     M anipulation  |
\*---------------------------------------------------------------------------*/
FoamFile
{
    version     2.0;
    format      ascii;
    class       volVectorField;
    location    "0.3";
    object      U;
}
// * * * * * * * * * * * * * * * * * * * * * * * * * * * * * * * * * * * * * //

dimensions      [0 1 -1 0 0 0 0];

internalField   nonuniform List<vector> 
1924
(
(0.543879 -0.120411 1.11256e-17)
(0.455144 -0.191966 -2.26753e-18)
(1.45413 0.105367 -6.6248e-19)
(1.63588 -0.104705 -7.61042e-19)
(0.481181 -0.197093 -2.9607e-19)
(1.7815 0.131372 1.06958e-18)
(1.82559 -0.183595 6.83986e-19)
(1.78018 0.0492521 3.58303e-18)
(1.55478 -0.361933 6.43051e-18)
(1.32813 -0.1106 -1.15804e-18)
(0.948832 -0.305751 1.10274e-17)
(0.482686 -0.72312 1.1108e-17)
(0.482809 1.1788 -3.51336e-19)
(0.0862614 -0.426603 1.25213e-17)
(-1.55529 -1.02813 2.70421e-19)
(-1.73331 -0.548345 1.0507e-18)
(0.406419 1.13961 -2.63169e-19)
(-0.218681 -0.74029 1.04671e-17)
(0.476715 -0.299816 1.72045e-17)
(-0.40623 -0.762771 9.29997e-18)
(0.38646 1.21723 1.61204e-18)
(0.431177 0.963142 3.55526e-18)
(0.203155 0.303235 1.14892e-18)
(-0.528818 -0.85111 7.63794e-18)
(0.462225 0.872959 6.95503e-18)
(0.481085 0.855564 8.62046e-18)
(0.421742 0.783322 8.02389e-18)
(0.554033 -0.547972 -7.57292e-19)
(0.557201 1.09372 1.22474e-17)
(0.151858 -0.357213 2.64474e-19)
(0.159723 0.583989 9.53029e-19)
(0.403582 0.97193 8.04782e-18)
(0.164711 0.841394 1.60247e-17)
(0.418087 1.06237 -1.80129e-18)
(0.750525 -0.430938 -1.67745e-18)
(0.0633289 0.0931126 -1.90243e-18)
(0.394408 0.895643 7.27495e-18)
(0.575484 0.488741 6.8678e-18)
(0.171641 -0.364898 -1.14756e-18)
(0.26853 0.935005 -9.8013e-19)
(0.416626 0.902964 7.65568e-18)
(0.467845 1.27422 4.01867e-19)
(0.462443 0.911352 8.33168e-18)
(0.316888 0.340329 -2.51924e-19)
(0.903776 -0.347574 3.92342e-18)
(0.47592 1.00374 1.38115e-17)
(0.252934 -0.671014 1.08122e-17)
(1.49447 -0.544915 -1.02717e-18)
(0.54794 1.4539 4.05468e-19)
(0.284446 1.00299 4.01939e-18)
(-0.578778 -0.187465 7.74262e-19)
(0.446871 1.19476 1.97742e-19)
(0.444604 0.98037 7.5261e-18)
(-0.754713 -0.0881026 1.17763e-18)
(0.272252 0.951402 1.35964e-17)
(1.32433 -0.447383 -1.2469e-18)
(0.445844 -0.444479 1.6648e-17)
(0.728823 -0.999281 -9.916e-18)
(0.51253 -0.803881 -6.53381e-18)
(0.26367 0.625086 3.785e-18)
(-0.0242181 -0.124087 3.02513e-18)
(-1.74021 0.0961982 5.4588e-18)
(-0.107348 -0.0760363 3.12347e-18)
(0.140772 -0.352344 -3.45903e-19)
(-0.54908 0.00883157 9.45928e-19)
(1.5178 -0.652692 -5.57749e-19)
(-0.582148 1.76826 1.11244e-17)
(0.0338058 0.194036 6.52936e-19)
(0.539398 1.04614 1.35429e-17)
(-0.519045 -0.227138 3.96405e-20)
(0.0742238 0.482669 6.18797e-18)
(-1.7164 0.853923 5.90919e-18)
(0.12609 -0.376793 -5.64842e-19)
(0.25116 -0.352533 -1.94402e-19)
(0.400503 -0.581764 2.85431e-19)
(-0.937729 -0.30627 8.81058e-18)
(1.44407 -0.686434 -8.63981e-19)
(0.584407 -0.617445 8.77979e-21)
(1.36314 -0.301496 2.29761e-19)
(-0.334951 -0.265911 5.02403e-19)
(0.0949027 -1.35122 -3.50327e-18)
(0.40165 0.743327 7.99428e-18)
(0.15956 -0.185697 1.17545e-18)
(0.255806 0.976653 2.82069e-18)
(0.427152 0.616397 1.34552e-17)
(-0.03655 0.111475 2.30975e-18)
(0.956467 -0.706184 -1.919e-18)
(-0.949855 -1.03757 5.85806e-18)
(0.337107 1.04773 2.07035e-18)
(0.0987463 0.545427 5.75772e-18)
(0.0145618 1.93752 1.48539e-17)
(0.392146 0.73084 6.8603e-18)
(0.427616 1.01532 1.36502e-17)
(0.446344 0.987192 1.3629e-17)
(0.174371 0.786098 4.18334e-18)
(-0.551313 0.0686795 5.75791e-19)
(1.4898 -0.778943 -1.12714e-18)
(-0.0319647 -1.45826 -1.71786e-19)
(0.370755 0.597525 5.63493e-18)
(0.107635 0.375606 4.72787e-18)
(1.21774 0.915805 -1.06825e-19)
(0.254259 0.96658 2.81064e-18)
(0.437458 0.740099 6.90235e-18)
(0.44705 0.64098 1.14028e-17)
(0.375807 0.731902 1.36815e-17)
(0.628061 -0.894248 1.19129e-18)
(0.818939 1.42459 1.33935e-17)
(0.124289 -0.306664 1.33389e-17)
(0.147625 0.575962 1.4199e-18)
(0.519117 1.08653 1.36368e-17)
(1.43224 -0.90829 -1.30201e-18)
(0.634014 1.16985 1.35683e-17)
(0.436425 -0.17481 1.34287e-18)
(0.174056 -0.234267 7.88633e-19)
(1.31701 -0.442713 -1.52086e-19)
(0.161911 0.706147 4.35272e-18)
(1.41429 0.714183 -1.09135e-18)
(-1.50281 -0.568715 -2.57738e-18)
(-0.129538 -0.298578 1.45138e-18)
(1.27132 -0.665827 -7.5928e-19)
(0.445778 0.102552 2.136e-17)
(1.09674 0.0883706 -1.80261e-18)
(0.411968 1.28679 8.80869e-19)
(0.105016 0.568147 4.74793e-18)
(-1.4879 1.32616 7.29959e-18)
(0.361407 0.41846 8.69597e-18)
(0.0111383 0.155436 8.13542e-18)
(0.552126 -0.718566 1.07873e-19)
(0.615572 1.1735 1.36771e-17)
(0.967299 -0.210457 -1.25813e-18)
(1.29542 -1.01816 -1.22476e-18)
(1.15425 1.36697 6.04097e-18)
(-1.41655 0.386589 6.3804e-18)
(0.163796 -0.179827 9.57308e-19)
(0.355254 1.0715 1.75385e-18)
(0.617403 1.12813 1.37888e-17)
(0.896865 0.81162 5.10749e-18)
(0.728326 1.11842 1.20887e-17)
(-0.580118 -0.94028 6.40572e-18)
(0.605678 -0.215515 3.58741e-19)
(1.44199 -0.695358 -8.28461e-19)
(-0.81821 1.47812 1.24554e-17)
(0.275281 -0.508777 7.32173e-18)
(0.0785148 0.562577 9.86553e-18)
(1.64216 1.12698 -2.35927e-18)
(0.878748 -0.257386 -3.56363e-18)
(-0.0426999 -0.920606 9.05754e-18)
(0.102563 0.408529 6.78484e-18)
(0.0425085 0.569541 1.43549e-20)
(-0.125427 -0.321063 5.74546e-19)
(0.139774 -0.200832 1.11109e-18)
(0.912778 0.00797028 -5.03227e-20)
(0.100265 0.552087 6.09794e-18)
(1.28621 1.87181 5.81516e-18)
(1.82135 0.900507 2.12386e-18)
(-0.267536 0.155956 1.34273e-17)
(1.05332 0.226708 -5.29274e-18)
(0.966335 0.512245 1.06771e-18)
(1.29715 -1.21409 -4.09959e-19)
(0.239916 -0.0496767 -6.91003e-19)
(0.176103 -0.26464 1.00382e-18)
(-0.531857 0.0725736 1.2744e-17)
(1.54535 1.81676 3.15097e-19)
(1.23826 0.020257 3.22795e-20)
(0.103713 -0.244301 6.97591e-19)
(0.592009 1.00248 1.28251e-17)
(0.548785 1.03676 1.6072e-17)
(1.00516 0.250962 -4.28651e-18)
(1.14269 -0.745145 -8.64405e-19)
(0.700538 1.22954 1.36186e-17)
(0.295526 1.00836 1.49641e-17)
(1.89459 1.2875 5.19509e-18)
(0.516842 -0.958375 -1.10032e-19)
(0.400061 0.451958 3.58229e-18)
(1.47178 -0.591922 -1.09467e-18)
(0.215378 0.693705 6.78185e-18)
(0.161067 -0.321701 1.44152e-18)
(0.0322317 0.528153 3.91556e-18)
(-0.0906475 -0.153543 -1.52846e-18)
(1.79953 2.44354 -5.65228e-19)
(0.0158559 0.36331 1.94805e-17)
(-1.23629 -0.544024 -7.96998e-19)
(0.820913 -0.46892 -1.66003e-19)
(0.560459 0.705506 2.28522e-17)
(0.596644 1.41979 -9.86143e-19)
(0.344304 -0.829334 1.07585e-18)
(0.0880149 0.61409 8.05817e-18)
(0.0348659 -0.0740638 1.2878e-17)
(1.14193 -0.943676 -1.70765e-18)
(0.268064 -0.221929 1.0005e-18)
(-0.301016 0.166614 5.90215e-18)
(1.88849 0.868288 4.07702e-18)
(1.08381 -1.32316 2.55444e-20)
(1.89331 2.07381 3.56165e-18)
(0.804305 1.31627 1.77496e-17)
(0.907022 -0.00979967 -1.09758e-19)
(0.576708 -0.0834663 1.61333e-17)
(0.261786 0.695279 8.65634e-18)
(0.251686 0.548034 1.23823e-17)
(0.307609 0.81681 5.18382e-18)
(0.1914 0.800284 1.32195e-17)
(0.51397 -0.427697 -3.69131e-18)
(0.827516 1.24657 1.35904e-17)
(1.52134 1.14678 8.13214e-18)
(0.41131 0.576666 7.25388e-18)
(0.19232 0.433914 1.0205e-17)
(1.77422 2.58195 3.06349e-18)
(0.207617 0.79861 5.04439e-18)
(0.184442 0.667348 5.79951e-18)
(-0.251954 -0.314637 1.63047e-18)
(1.30942 -0.0168457 8.83529e-20)
(0.79329 1.30227 1.28081e-17)
(-0.418908 -1.29772 -5.82775e-22)
(0.750922 1.16797 1.62411e-17)
(0.334872 0.316142 7.91479e-18)
(0.642465 -0.79032 1.64932e-19)
(0.0177282 0.57878 -4.89311e-19)
(0.12769 0.588369 7.07423e-18)
(1.52752 2.02143 6.22707e-18)
(0.477054 -0.784048 2.07858e-19)
(-0.69538 -0.41213 1.83897e-17)
(0.150383 -0.137368 8.93214e-19)
(0.819052 1.28183 1.61014e-17)
(-0.498378 -1.28854 3.7027e-18)
(0.996807 0.45564 1.16662e-17)
(0.34298 0.399015 9.33563e-18)
(0.928284 -1.42629 3.01634e-18)
(0.446711 -1.09312 -4.2836e-19)
(0.992319 1.49516 1.76196e-17)
(0.336619 0.838029 5.06849e-18)
(0.176909 0.973923 1.34218e-17)
(0.140991 1.66005 4.21391e-18)
(0.225417 0.579147 9.01374e-18)
(-0.186866 -0.315503 4.0475e-18)
(0.706102 0.522755 1.67845e-17)
(-0.0104582 0.037202 2.69812e-19)
(-0.526563 -1.10786 1.09758e-18)
(1.3562 2.27569 5.86759e-18)
(0.96823 1.45729 1.68523e-17)
(0.94453 -0.0643568 -2.40113e-19)
(-1.00948 -0.419924 4.97798e-19)
(0.3148 0.690524 6.70268e-18)
(-0.61706 -1.0017 2.11166e-18)
(0.218964 0.826166 4.54305e-18)
(0.510959 -0.0887671 1.972e-19)
(0.188249 0.772268 4.69087e-18)
(0.684604 0.485735 4.26576e-18)
(1.60801 -0.607219 -1.09228e-18)
(0.715338 -0.611074 1.87478e-19)
(0.499046 -1.03688 -1.22129e-18)
(0.363067 -1.0251 -4.44364e-18)
(1.23558 -0.0517112 -9.92942e-20)
(1.0214 1.42588 2.23588e-17)
(0.920319 1.38742 1.11011e-17)
(1.00389 -1.02527 -1.80641e-18)
(-0.788608 -1.22246 2.03052e-18)
(0.49516 0.847423 8.61976e-18)
(0.341311 0.839603 5.7864e-18)
(0.253022 0.268313 2.40517e-17)
(0.942783 1.56271 3.66469e-18)
(0.400471 -0.705141 5.41689e-17)
(0.995267 1.53791 1.66675e-17)
(0.363388 0.492808 3.29202e-18)
(0.757041 -0.708816 -2.58044e-19)
(0.374113 0.917569 8.27959e-18)
(0.241907 -0.52725 1.03085e-18)
(0.606169 1.38332 -1.53103e-18)
(0.455628 -0.864176 -1.92666e-19)
(0.286877 0.759751 1.34521e-17)
(0.143155 -0.525804 1.81028e-17)
(0.348031 0.877803 4.63129e-18)
(0.140085 -0.227497 7.89934e-19)
(0.40237 0.943573 1.4022e-17)
(0.352811 0.816714 6.35119e-18)
(0.149211 1.53004 1.79506e-18)
(-0.059766 -1.28103 -1.50408e-18)
(0.211592 0.0182027 8.21214e-18)
(0.50577 0.493226 1.57195e-17)
(1.02789 1.42298 1.28269e-17)
(0.329418 0.753348 6.08665e-18)
(0.227013 0.591428 1.40321e-17)
(0.892926 -0.0719271 -7.61091e-19)
(0.2407 1.77608 1.14962e-17)
(1.20354 1.63759 1.96279e-17)
(0.554483 -0.026848 2.18537e-17)
(0.663253 -0.409059 -1.10428e-18)
(0.611238 -1.46311 1.72875e-18)
(1.17158 -0.150267 -1.42455e-18)
(0.807877 1.57112 4.47455e-18)
(0.322242 0.754362 5.98166e-18)
(1.10157 1.68661 1.55839e-17)
(0.48 -0.173111 -4.85911e-19)
(0.780862 1.01639 1.78224e-17)
(-0.697207 -1.04939 1.2657e-18)
(0.202356 0.728973 5.15182e-18)
(0.115303 -0.272776 7.72254e-19)
(-0.869759 -1.26931 1.79449e-18)
(0.281887 0.936353 2.8336e-18)
(0.465852 -0.845602 1.6245e-19)
(-0.762193 -1.08281 1.02121e-18)
(0.752529 -0.175957 -1.01886e-18)
(1.16065 1.53918 1.57434e-17)
(-0.632587 -0.970997 1.69911e-18)
(-0.0369733 0.545372 6.00184e-19)
(0.152779 -0.0978906 8.33072e-18)
(0.379934 0.78131 6.88945e-18)
(0.699905 1.27982 -1.95277e-18)
(-0.646244 -0.994467 2.02642e-18)
(0.352287 0.861098 6.26077e-18)
(0.0636789 -0.0806519 1.02761e-18)
(0.242374 0.873661 3.78333e-18)
(-0.13917 -0.292125 7.46305e-19)
(1.18963 1.5977 2.06396e-17)
(0.247471 0.385539 8.62029e-18)
(0.985827 -1.24367 -1.86587e-18)
(0.712378 1.09224 -2.02763e-18)
(0.0187221 -0.374972 3.88297e-17)
(0.552809 0.943031 6.90315e-18)
(1.14878 1.76994 1.5969e-17)
(0.515261 0.504717 1.931e-17)
(-0.117013 -0.094268 1.02228e-18)
(0.350449 0.87376 4.79194e-18)
(1.60968 1.96661 1.14136e-17)
(0.148288 -0.278165 6.52752e-19)
(0.409607 0.751191 7.696e-18)
(0.228293 -1.18016 -1.75795e-19)
(0.322637 0.625861 6.22597e-18)
(0.368099 0.844187 7.75345e-18)
(1.6254 -0.567154 -1.11751e-18)
(0.295904 -1.41169 3.5022e-18)
(0.339262 0.797291 5.83765e-18)
(-0.680174 1.39923 -3.72469e-19)
(0.095313 0.0555747 8.2222e-18)
(-0.115544 -0.637503 8.65306e-18)
(0.402675 -0.746219 5.34221e-19)
(0.402999 0.930975 1.184e-17)
(0.343563 0.994648 1.28405e-18)
(1.30528 1.93431 1.43358e-17)
(1.25217 1.78351 1.76349e-17)
(1.36544 2.01351 1.11019e-17)
(0.271777 -1.10589 1.26107e-19)
(0.163046 -0.24541 5.36726e-19)
(0.461579 0.651523 8.3207e-18)
(0.30418 0.92164 3.52928e-18)
(-1.09835 -1.08003 -1.22997e-19)
(-1.68124 0.0526068 -4.70291e-18)
(0.239848 0.896743 1.33472e-17)
(-1.30645 0.985412 1.53914e-18)
(-0.126235 -0.274032 9.40633e-19)
(0.405288 0.814211 7.37022e-18)
(0.47844 0.936472 8.38919e-18)
(0.61966 -0.613172 -3.69358e-18)
(0.0775834 -0.22344 1.75752e-19)
(-0.663913 -0.952548 6.55614e-19)
(0.32096 1.01831 2.42376e-18)
(0.359637 -0.983405 -7.19515e-20)
(0.967359 0.774401 -4.11424e-19)
(0.420363 0.97685 9.35352e-18)
(0.36615 0.925893 6.09187e-18)
(-0.458787 0.0478677 3.51418e-19)
(0.557191 1.44731 1.64932e-17)
(-0.869301 -0.913995 4.52831e-20)
(-0.648907 -0.959447 5.64344e-19)
(-0.0154503 1.46566 3.79518e-19)
(0.448941 0.884216 8.35543e-18)
(1.56841 2.56716 6.36702e-18)
(0.281133 0.322087 7.61422e-18)
(0.354941 0.905849 4.52552e-18)
(1.1417 1.79978 1.66885e-17)
(1.32437 1.94739 1.35273e-17)
(-0.59083 -1.03332 7.57871e-19)
(0.26211 0.0390723 1.90419e-17)
(0.37361 0.889859 5.77559e-18)
(-0.871026 -0.42627 -3.22833e-19)
(0.607664 0.642724 9.1887e-18)
(0.019952 0.533281 4.80791e-18)
(-0.946379 -0.887744 -1.35143e-19)
(-1.25086 -0.980757 -3.30804e-19)
(0.340439 0.773966 8.1619e-18)
(-1.42422 0.744648 1.4896e-18)
(-1.58793 0.327825 -1.89644e-18)
(0.371402 -0.914169 4.70275e-19)
(0.337779 0.717371 5.85777e-18)
(0.764336 0.847035 1.96028e-17)
(0.346915 0.858269 5.45085e-18)
(-0.539872 -1.10307 -8.32878e-20)
(0.330197 -0.681272 1.5999e-18)
(-0.298366 1.33457 -5.13977e-19)
(0.516151 0.744745 8.26815e-18)
(1.44681 2.46504 1.05973e-17)
(0.0800565 -0.157792 1.13862e-18)
(0.0718749 -0.196154 4.53748e-18)
(0.344105 0.586601 6.37423e-18)
(-0.696515 1.144 -9.09502e-19)
(1.37644 2.13344 1.05861e-17)
(0.0572593 0.85076 1.19795e-17)
(0.562434 0.903507 8.39869e-18)
(0.367682 0.498091 7.53616e-18)
(-0.05024 -1.40812 3.69546e-18)
(-1.55326 -0.180591 -4.25954e-18)
(0.494468 -0.385658 -4.22857e-19)
(0.377103 -0.878069 7.44659e-19)
(0.346789 0.944299 3.11409e-18)
(0.155163 0.40728 1.42533e-17)
(0.691822 0.110516 -1.86952e-18)
(0.133785 0.865206 -3.34961e-19)
(-0.309065 -1.20711 -3.4248e-19)
(-0.857523 0.983271 -1.13407e-18)
(0.364498 0.919044 2.64634e-18)
(0.528191 0.915202 8.61937e-18)
(0.422929 1.5033 1.32161e-17)
(3.75629e-05 -0.292207 2.37921e-18)
(0.257871 0.416544 1.07068e-17)
(1.35309 2.57089 8.54104e-18)
(1.02702 1.99041 1.58834e-17)
(-0.0162777 0.512295 6.28292e-19)
(0.000784445 -1.17714 7.0838e-19)
(-0.763283 -0.807138 -1.22319e-19)
(-0.11237 -0.0789679 1.86655e-18)
(1.59167 -0.740236 -1.06576e-18)
(-0.713245 -0.850755 -1.21115e-19)
(0.360205 0.912833 5.55077e-18)
(-0.210078 -1.24405 5.85453e-19)
(0.340355 1.01721 7.63943e-19)
(0.492141 0.767397 8.2162e-18)
(-0.587768 -0.928367 -3.06591e-20)
(0.782004 -1.30822 -1.95865e-18)
(0.226993 -0.37749 -3.10855e-18)
(0.231772 -0.0555508 5.04451e-18)
(0.424898 0.570202 4.18645e-18)
(-0.0886841 0.929657 -5.12668e-19)
(0.0568854 -1.13592 -2.20491e-19)
(0.196841 0.541353 1.12128e-18)
(-0.0574924 -0.352451 4.47864e-19)
(1.26286 2.12547 1.20081e-17)
(0.513456 0.597777 6.2437e-18)
(-0.553568 -0.974343 -2.33322e-19)
(0.463437 1.33084 -2.07878e-18)
(1.32973 2.58203 8.32744e-18)
(0.374713 0.546109 7.71958e-18)
(0.355464 0.888958 4.83516e-18)
(0.739306 0.813691 7.17253e-18)
(0.817901 0.515145 1.57565e-17)
(0.0882213 -0.302861 9.69653e-19)
(-1.06917 0.616895 6.6328e-19)
(0.26924 -0.0570262 -1.19962e-18)
(0.307789 1.84375 9.29651e-18)
(0.342604 -0.80975 5.16874e-19)
(0.351613 0.634568 6.33022e-18)
(-0.34408 0.995153 -5.00879e-19)
(-1.12721 -0.70767 -2.80559e-19)
(0.14722 -0.227529 3.48381e-18)
(1.01876 1.06391 1.91576e-17)
(-0.331426 -1.22766 5.61229e-18)
(0.670439 0.880716 5.29829e-18)
(0.406263 0.55757 6.7677e-18)
(-0.440859 -1.05208 -3.29582e-19)
(-0.865125 -0.701274 -1.3872e-19)
(-0.0780262 -0.348663 -1.55707e-19)
(-1.26291 0.0825455 -3.65419e-18)
(0.170558 -1.04947 2.40378e-19)
(0.293013 0.0452428 5.35242e-18)
(0.826752 0.799003 -7.85331e-18)
(-0.0981326 -0.330203 1.635e-19)
(0.316511 0.911482 3.25174e-18)
(-0.509982 0.903491 -8.57662e-19)
(-0.736245 0.751481 -9.67528e-19)
(0.920211 1.93047 1.69349e-17)
(1.05416 2.12496 6.60132e-18)
(0.795107 -0.218786 1.24637e-18)
(0.560931 0.874109 1.04823e-17)
(0.0293561 -0.358971 6.1865e-19)
(-0.20811 -0.519968 4.37401e-18)
(-0.384026 -1.07159 -4.90133e-19)
(0.312932 1.00822 4.94008e-18)
(0.211658 -1.01052 1.56901e-19)
(0.111513 -0.378603 3.40921e-19)
(0.163261 0.386213 1.27334e-17)
(-1.10014 0.479255 1.22651e-18)
(-1.17959 -0.233217 -2.20971e-18)
(0.396554 1.61841 4.85957e-18)
(1.09048 2.1233 1.22054e-17)
(0.0192299 0.680388 -4.04297e-19)
(-0.793969 0.628093 -4.45616e-19)
(0.248745 -0.140362 4.38621e-18)
(0.479214 0.702661 8.68132e-18)
(0.476098 0.712016 3.75487e-18)
(-0.764012 -0.37777 -7.77957e-19)
(0.11578 0.585388 1.53584e-19)
(0.638025 -1.4887 -9.20622e-19)
(0.517021 1.08033 -2.16239e-18)
(0.190772 0.592288 1.27312e-18)
(-0.00302944 -0.359082 5.36696e-19)
(1.65096 -0.786142 -2.9656e-19)
(-0.618716 -0.794338 -2.11416e-19)
(-0.191589 -1.11603 8.30285e-20)
(-1.19403 0.23862 -1.70911e-18)
(-0.153842 0.760948 -4.57223e-19)
(0.673715 0.843302 5.03212e-18)
(0.146752 -0.29446 9.57446e-19)
(-0.575097 -0.839666 -2.2783e-19)
(-0.928343 -0.629144 -2.13748e-19)
(0.35588 0.966359 4.97903e-18)
(0.419844 0.146212 5.13098e-18)
(0.408887 1.04372 -2.90421e-19)
(-0.0471734 0.458627 1.00824e-19)
(-0.707361 -0.699713 -2.17959e-19)
(0.816652 0.808483 5.29135e-18)
(0.147738 -0.329737 1.23637e-18)
(-0.468674 -0.915454 -2.77657e-19)
(0.270755 -0.95812 5.11495e-19)
(-0.140875 -1.08181 9.02879e-19)
(-0.254363 0.758955 -1.29625e-19)
(0.911787 0.908214 1.87439e-17)
(-0.460522 0.742321 -7.00747e-19)
(-0.557492 0.665337 -5.36394e-19)
(0.360835 -0.0749798 3.75004e-18)
(0.398871 0.656558 7.32954e-18)
(0.919707 2.0728 9.51873e-18)
(-1.1439 -0.0788214 -1.90843e-18)
(-0.0429286 -0.330416 -8.89282e-20)
(-0.746117 -0.645569 -1.73577e-19)
(0.000438137 -1.06315 2.66626e-19)
(-0.428076 -0.935168 -2.71449e-19)
(0.990397 1.38719 1.7679e-17)
(0.366388 0.659618 8.37264e-18)
(0.234975 -0.75169 2.86668e-18)
(-0.202879 -0.24654 -2.22053e-18)
(0.760176 0.791874 8.95814e-18)
(0.705176 2.01299 1.6704e-17)
(-0.0833774 -0.305689 -6.17379e-20)
(-0.243713 -0.283353 1.05992e-17)
(0.103571 -0.353528 -2.34927e-19)
(-0.116564 -0.146007 1.70793e-18)
(0.353302 0.982087 2.64257e-18)
(-0.682725 0.509661 -2.03001e-19)
(0.948959 2.15944 1.35103e-17)
(0.294026 1.03908 5.67818e-18)
(0.729282 0.779225 -7.7931e-18)
(0.446765 0.203362 5.07919e-18)
(0.239012 -0.279944 2.25944e-18)
(0.153484 -0.310102 8.13427e-19)
(-0.384878 -0.275541 -8.66452e-19)
(0.287726 -0.918745 1.43224e-18)
(-0.316831 -0.99533 -2.7427e-19)
(0.131159 0.658511 1.37518e-19)
(0.466851 -0.429732 -1.44567e-18)
(0.128414 -0.342303 5.74435e-20)
(-0.875496 0.410492 6.71614e-19)
(-0.367939 -1.30355 2.92872e-18)
(0.220083 0.671463 8.92624e-19)
(-0.0626074 0.639393 8.16027e-21)
(-1.03059 -0.287583 -9.1082e-19)
(0.0281985 -0.343609 4.89465e-20)
(0.577333 0.763459 2.9353e-18)
(-0.151158 -0.184651 1.63335e-18)
(-0.199052 -0.228612 -1.46122e-18)
(-0.486013 -0.190847 1.20658e-18)
(0.128031 -0.30417 1.01342e-18)
(0.11513 -0.393445 3.75796e-19)
(0.391312 -0.0116143 3.27509e-18)
(-0.0508766 -0.306185 4.32226e-21)
(-0.239658 -1.13219 1.76156e-17)
(-0.128696 0.64758 -1.26155e-19)
(0.356333 0.940421 6.79553e-18)
(-0.0363671 0.160815 4.2364e-18)
(0.0495966 -1.03884 3.28266e-19)
(1.50982 -0.988507 6.65709e-19)
(-0.140777 -0.531888 1.50951e-18)
(0.200173 -0.315858 2.00122e-18)
(-0.265349 -0.997213 -2.11676e-19)
(0.041343 0.572072 5.43402e-20)
(0.69383 0.696135 3.11612e-18)
(-0.275033 0.652347 -4.4648e-19)
(0.267166 -0.867105 9.95422e-19)
(-0.500211 0.549034 -2.48669e-19)
(-0.173134 -0.228067 5.55126e-19)
(0.463737 0.929037 1.63194e-18)
(-0.490428 -0.784587 -1.45227e-19)
(-0.148909 -0.269232 1.62723e-18)
(0.336284 -0.209906 1.32385e-18)
(-1.00185 0.0821815 -2.32419e-18)
(0.693026 1.63487 8.92294e-18)
(-0.360556 0.612595 -8.48629e-19)
(-0.456944 -0.0838641 2.68457e-19)
(-0.321163 -0.278336 -9.75208e-19)
(-0.577536 -0.703692 -1.59976e-19)
(-0.138529 -0.242739 3.08311e-19)
(-0.135768 -1.02106 4.11129e-19)
(0.168631 -0.281668 2.15444e-19)
(0.833526 0.451245 5.10032e-18)
(0.00611746 -0.326846 -5.34407e-19)
(0.238123 -0.332621 2.9638e-17)
(-0.440615 -0.127923 5.37296e-19)
(-0.425365 -0.226965 -1.15754e-19)
(-0.450803 -0.813942 -1.30272e-19)
(-0.557725 0.484166 -1.80078e-19)
(0.730446 -1.1196 -2.23145e-18)
(-0.711288 0.430313 -1.98333e-20)
(-0.0912126 -0.293316 -3.15094e-19)
(-0.445483 0.0106474 8.64206e-20)
(-0.613368 -0.658299 -1.6682e-19)
(0.594512 1.95642 1.4426e-17)
(0.104747 -0.346668 9.64421e-19)
(0.113499 -0.333437 5.72326e-19)
(-0.537499 -0.2152 1.07992e-17)
(0.346068 0.642606 8.19223e-18)
(0.143972 -1.00506 2.87472e-19)
(0.0719073 0.380002 4.32713e-18)
(-0.125071 -0.219835 4.4331e-20)
(0.736933 0.126388 3.03589e-18)
(-0.829201 -0.525021 -7.46292e-19)
(-0.184741 -0.225565 1.03383e-18)
(0.428122 -1.48992 -1.21874e-18)
(0.292885 -0.264895 3.93234e-19)
(-0.895708 0.321521 1.08959e-18)
(0.925687 1.26658 1.74257e-17)
(0.370588 1.04749 2.62403e-18)
(-0.415325 -0.0595471 2.4696e-19)
(0.13287 -0.32774 -3.95662e-19)
(-0.356889 -0.878284 -1.35363e-19)
(-0.0897923 -1.01709 4.69051e-19)
(1.3831 -1.03415 3.59316e-18)
(0.371845 -0.175122 9.91986e-19)
(0.66513 1.97712 1.68107e-17)
(0.103848 -0.690967 5.12437e-18)
(-0.255829 -0.262695 2.01112e-18)
(-0.954117 0.169004 -8.25888e-19)
(0.316121 0.717582 8.52302e-18)
(-0.169932 -0.269193 1.13679e-18)
(-0.959796 -0.125449 -8.3662e-19)
(0.204829 0.608886 2.32996e-19)
(0.545574 -1.16855 -2.2808e-18)
(-0.104471 -0.276546 2.74531e-19)
(0.0843803 -0.323664 1.28411e-18)
(-0.427766 -0.0362787 1.92463e-19)
(0.372026 0.66066 1.11863e-18)
(0.100452 -0.318218 1.20768e-18)
(0.101786 0.603117 -2.11902e-19)
(-0.316709 -0.895111 -6.32286e-20)
(-0.0708136 0.56358 1.26125e-18)
(-0.16933 0.576062 -2.42782e-19)
(0.190513 -0.298278 7.10952e-19)
(0.594544 0.458808 1.15006e-18)
(-0.0250748 0.406078 3.82474e-19)
(-0.686803 -0.565593 -1.68528e-19)
(0.353299 -0.201109 3.82472e-19)
(-0.676172 -0.375659 -8.62568e-20)
(0.0611966 0.584521 -5.38167e-19)
(0.363298 1.02 6.41583e-18)
(-0.0227109 -0.2934 8.3669e-20)
(-0.2391 0.554416 3.9236e-21)
(1.01631 0.0394866 -5.04711e-19)
(0.901991 1.56129 1.70867e-17)
(-0.233555 -0.259168 1.42182e-18)
(-0.355437 0.519673 -6.06639e-20)
(-0.0623762 -0.276444 -9.37951e-20)
(0.172795 -0.976575 -9.97157e-19)
(0.642932 0.25753 1.42092e-18)
(-0.165864 -0.282188 1.1639e-18)
(-0.122244 -0.133331 2.27345e-18)
(-0.341225 -0.24961 4.30738e-19)
(0.256897 -0.802914 6.34229e-19)
(-0.218257 -0.946635 9.71825e-20)
(-0.414656 0.478338 -2.20089e-20)
(0.0959244 -0.363175 6.30145e-19)
(0.604818 -0.00541682 7.57803e-19)
(-0.934516 -0.0316686 -1.07016e-18)
(0.0282103 -0.30232 5.87505e-20)
(0.158975 -0.293461 5.7362e-19)
(0.267861 -0.239287 -2.89576e-19)
(0.0176205 -1.01057 5.38002e-19)
(0.346163 0.448968 -1.85785e-18)
(0.194784 -1.54397 8.25873e-19)
(-0.720564 -0.502554 -1.78172e-19)
(-0.17851 -0.955753 1.31526e-19)
(0.482309 1.5891 1.04177e-17)
(-0.875699 -0.271887 -1.06408e-20)
(-0.39079 -0.186337 -2.31437e-19)
(-0.206641 -0.2714 3.57754e-19)
(-0.462886 -0.69991 -5.9345e-20)
(-0.496928 -0.663818 -6.62065e-20)
(-0.745438 0.28412 5.7209e-19)
(-0.62633 0.361987 5.67055e-20)
(0.505751 -0.11263 1.75455e-19)
(0.575121 2.05559 1.83777e-17)
(-0.503162 0.408525 -5.28574e-20)
(0.160585 -0.265605 2.90008e-19)
(-0.380674 -0.770067 -6.5104e-20)
(-0.299482 -0.254599 6.61722e-19)
(0.165853 -0.321576 4.83979e-19)
(0.384827 1.97003 1.44322e-17)
(0.922173 -1.17608 5.53263e-18)
(0.331376 0.456092 1.62143e-20)
(-0.0325125 -0.277615 1.05965e-19)
(-0.568994 -0.583667 -7.61991e-20)
(-0.193658 -0.277336 3.51446e-19)
(0.215208 -0.929539 1.34414e-18)
(0.231276 -0.246028 -5.31684e-19)
(0.3198 -0.177571 -1.46027e-19)
(-0.0841086 -0.982013 4.76238e-19)
(-0.0995366 -0.249661 -2.81974e-20)
(0.19113 0.521312 5.3085e-19)
(0.573605 0.891926 -7.72728e-20)
(-0.381679 -0.115741 -1.48181e-19)
(0.136425 0.525228 1.07388e-19)
(-0.102628 0.511252 -3.32349e-19)
(0.395455 0.38581 1.01366e-19)
(-0.345234 -0.79669 -4.27607e-20)
(0.0909653 -0.290876 4.74761e-19)
(0.0118285 -0.288318 5.64447e-20)
(-0.350922 -0.205533 1.64694e-19)
(-0.151903 0.504734 -8.62468e-19)
(0.188152 -0.259799 -4.7829e-19)
(0.492912 0.208494 1.12087e-19)
(0.293126 0.541606 8.06876e-18)
(-0.250657 0.486852 1.05434e-19)
(-0.0682393 -0.263719 -2.24262e-19)
(-0.600632 -0.534822 -7.42366e-20)
(0.428103 -0.0747026 2.04202e-17)
(0.227666 -0.878923 2.05514e-18)
(-0.830882 0.0702681 -2.92398e-19)
(0.0544275 -0.995821 5.02884e-19)
(-0.243834 -0.259138 4.02822e-20)
(-0.878342 -0.183069 -5.62146e-19)
(-0.0297196 0.42232 2.94995e-18)
(-0.097277 -0.399214 2.9345e-18)
(-0.372803 -0.0594586 2.20846e-19)
(0.316619 0.768139 1.2812e-18)
(-0.261543 -0.859054 1.27334e-19)
(-0.306474 0.458019 9.57604e-20)
(-0.157224 -0.287363 7.18636e-19)
(0.132649 -0.30928 1.65962e-18)
(0.291612 -0.180733 -2.11148e-19)
(-0.641133 0.306678 8.25857e-20)
(0.467303 0.0872827 -3.01102e-20)
(-0.539143 0.358156 7.05537e-20)
(0.0424484 0.526653 -2.57309e-19)
(-0.757702 0.231206 4.42219e-19)
(-0.0833557 -0.24783 -7.00787e-20)
(-0.36285 -0.136789 -2.27715e-19)
(-0.392702 0.410433 5.54429e-20)
(-0.0490517 -0.979919 1.34018e-18)
(-0.29321 0.101519 2.9486e-18)
(0.482972 -1.08419 6.87634e-18)
(0.0463373 -0.330048 1.01766e-18)
(0.150023 -0.259424 -7.92271e-19)
(-0.225357 -0.259374 2.92782e-20)
(0.0678627 -0.282118 8.23359e-19)
(-0.228787 -0.878366 2.54706e-19)
(0.41952 -0.0502918 -2.08596e-19)
(-0.0538908 0.361636 -2.50924e-20)
(0.412472 1.19646 1.24443e-17)
(0.108509 -0.314964 6.08286e-19)
(0.125888 -0.318335 7.41577e-19)
(0.82747 1.48522 1.66684e-17)
(0.0924521 -0.35156 -3.19477e-18)
(-0.355619 -0.0787323 2.07959e-19)
(0.482368 -0.296102 -6.36035e-20)
(-0.794817 0.123853 3.26562e-19)
(-0.359006 -0.462976 3.23231e-18)
(-0.433052 0.372796 4.98079e-20)
(-0.607341 -0.335355 6.98369e-19)
(-0.149486 -0.928205 1.72686e-19)
(0.361043 -0.0988877 -3.88224e-19)
(-0.18614 -0.263962 -6.91372e-19)
(0.322686 0.291475 -6.90286e-20)
(0.208072 -0.209518 -3.8229e-19)
(-0.288278 -0.224988 -9.97921e-19)
(0.187522 0.415564 4.61428e-19)
(-0.812529 -0.0696635 -6.77295e-19)
(0.243949 0.389824 -1.26842e-20)
(0.1338 -0.311081 1.10808e-18)
(-0.169925 0.45079 1.631e-20)
(0.619958 1.0506 2.76618e-19)
(-0.394447 -0.667856 -2.47444e-20)
(0.123319 -0.256074 -1.33192e-18)
(0.343987 0.225018 -8.66545e-20)
(-0.259325 -0.231546 -5.51661e-19)
(-0.0873468 0.457653 -9.61323e-20)
(-0.108103 -0.222718 -7.64597e-20)
(0.118853 -0.95932 8.80972e-19)
(0.251067 1.86658 1.64993e-17)
(0.0151381 -0.858991 1.41671e-17)
(-0.457676 -1.06343 5.71408e-18)
(0.0915253 -0.670669 3.19747e-18)
(-0.78217 -0.294391 -2.74236e-20)
(0.103921 0.456432 -2.11585e-19)
(-0.494021 -0.55383 -9.15219e-21)
(0.145812 -0.313191 -4.4246e-20)
(-0.168849 -0.26585 -2.38461e-19)
(-0.0452031 -0.251118 -3.30404e-19)
(-0.463452 -0.594721 2.49306e-21)
(-0.218144 0.431402 9.38484e-20)
(0.253978 -0.146429 -3.85518e-20)
(-0.119613 -0.937173 5.01805e-19)
(-0.363448 -0.700488 -1.64415e-20)
(-1.09228 0.222043 1.55423e-18)
(0.0568137 0.461434 -4.02397e-19)
(-0.013156 -0.26374 1.25909e-19)
(0.18212 0.32022 -5.4389e-19)
(0.247844 0.690675 2.21533e-18)
(0.362451 0.0979532 -1.8148e-19)
(0.101899 -0.396901 9.5023e-19)
(0.024942 -0.967624 1.13805e-18)
(-0.651345 -0.441317 -9.80479e-20)
(0.0980461 -0.329694 5.27924e-19)
(-0.788618 -0.0124433 -7.11705e-19)
(-0.300866 0.400413 1.50865e-19)
(0.177782 -0.214992 -2.85974e-19)
(0.171354 -0.759888 2.08791e-18)
(-0.28787 -0.769763 3.23263e-20)
(0.14107 -0.3065 8.13617e-19)
(-0.42706 0.0238356 1.12659e-19)
(0.0256062 -0.26713 2.60101e-20)
(-0.211451 -0.23438 -1.29388e-20)
(-0.697066 0.188841 1.8947e-19)
(-0.315512 -0.169204 -1.36546e-19)
(0.334992 0.0370819 -3.83377e-19)
(-0.110319 -0.277229 2.26524e-18)
(-0.0790755 -0.225464 3.24525e-20)
(0.678315 1.67565 1.58343e-17)
(-0.547875 -0.474336 5.95246e-20)
(-0.288449 -0.182779 -3.30253e-19)
(-0.490182 0.30707 -2.93908e-19)
(-0.257195 -0.797397 2.05253e-19)
(0.225488 -0.158342 -1.1398e-19)
(-0.576489 0.264446 -1.2199e-19)
(-0.343004 0.370698 1.16916e-19)
(-0.193607 -0.236757 -3.03542e-20)
(-0.764347 -0.187703 -7.21955e-19)
(-0.0522617 -0.948503 1.28072e-18)
(0.0707663 -0.255566 1.57128e-19)
(0.207715 0.308324 -2.389e-20)
(0.298612 -0.0521795 2.54156e-20)
(0.238573 0.270981 -3.81544e-20)
(0.146591 -0.925606 1.06456e-18)
(-0.636661 0.170672 4.22647e-20)
(-0.184584 -0.859461 1.12026e-19)
(0.229992 0.896596 -2.67921e-18)
(-0.00257912 -1.11439 6.34078e-18)
(-0.408404 -0.0197238 1.08309e-19)
(0.139673 0.364336 2.67711e-21)
(0.276613 0.179733 -5.55555e-20)
(0.946522 0.571929 -4.36119e-18)
(-0.0486922 -0.239473 -5.86252e-19)
(0.101977 0.381782 -2.6099e-19)
(0.260712 -0.0886806 3.00229e-19)
(-0.718206 0.0596498 6.56204e-19)
(-0.020433 -0.250851 2.9308e-19)
(-0.0963535 1.31558 1.4658e-17)
(-0.404916 0.321346 8.35021e-20)
(-0.23881 -0.196336 4.06352e-19)
(0.0524331 -0.941791 2.36014e-18)
(-0.760651 -0.122842 -2.45086e-19)
(-0.105648 0.410603 -1.87641e-21)
(-0.0630786 -0.225905 2.47225e-20)
(0.11491 -0.228516 -1.15669e-19)
(-0.318651 -0.110493 3.99586e-19)
(0.165249 -0.85184 1.7386e-18)
(-0.59665 0.220368 -1.66988e-20)
(-0.57383 -0.425095 9.70474e-20)
(-0.14708 0.398716 2.31756e-19)
(-0.532364 -0.0725037 3.84963e-19)
(-0.0971966 -0.200561 -5.01768e-20)
(-0.223055 0.380599 -2.82347e-20)
(-0.299907 -0.126946 -2.84962e-20)
(0.272166 0.121829 -8.4152e-20)
(-0.216957 -0.202451 2.94634e-19)
(-0.156101 -0.240874 1.55319e-19)
(-0.158679 -0.878721 -3.68298e-19)
(0.0130449 -0.257086 2.06687e-20)
(-0.112967 -0.172854 5.08698e-20)
(-0.0407184 1.87704 1.42681e-17)
(0.157723 -0.187164 1.41996e-19)
(0.716886 -0.157993 -1.41287e-18)
(-0.0233886 -0.935466 2.53998e-20)
(-0.127839 -0.192064 2.43689e-20)
(-0.0530174 0.267849 1.42022e-18)
(0.0216068 0.40954 3.99295e-20)
(0.0689236 -0.362823 3.87886e-19)
(0.0528495 -0.249957 8.06396e-20)
(-0.692704 0.103422 3.20023e-19)
(-0.0430574 -0.561514 2.28916e-18)
(-0.0398195 0.312135 5.59695e-20)
(0.263661 0.0385561 -9.18825e-20)
(-0.263538 0.357907 1.76486e-19)
(-0.246236 -0.912841 8.02899e-18)
(-0.433286 0.28872 3.56905e-19)
(-0.514058 0.267917 -7.96139e-19)
(0.192715 -0.132373 -1.60141e-19)
(-0.0996374 -0.909076 1.08617e-18)
(0.280748 0.196223 1.65828e-17)
(-0.541997 -0.331771 5.26313e-19)
(-0.39842 -0.570889 4.93587e-21)
(-0.369655 -0.607642 2.67553e-21)