/*--------------------------------*- C++ -*----------------------------------*\
  =========                 |
  \\      /  F ield         | OpenFOAM: The Open Source CFD Toolbox
   \\    /   O peration     | Website:  https://openfoam.org
    \\  /    A nd           | Version:  8
     \\/     M anipulation  |
\*---------------------------------------------------------------------------*/
FoamFile
{
    version     2.0;
    format      ascii;
    class       surfaceScalarField;
    location    "0.5";
    object      alphaPhi0.water;
}
// * * * * * * * * * * * * * * * * * * * * * * * * * * * * * * * * * * * * * //

dimensions      [0 3 -1 0 0 0 0];

internalField   nonuniform List<scalar> 
2805
(
3.37287e-07
4.90098e-05
-9.32945e-05
0
-1.74916e-07
-9.66583e-09
-2.11466e-08
1.29595e-08
1.66929e-07
-8.15328e-11
1.12968e-09
0
-3.80068e-12
2.46764e-07
0
-3.37047e-12
-1.11901e-09
2.22626e-09
-1.28533e-11
-5.38158e-12
-3.02786e-08
4.27641e-09
-1.01033e-11
1.81192e-11
-5.57735e-14
-6.133e-12
0.000353152
-0.000750633
0.000397698
-2.3775e-12
7.15817e-12
1.06351e-07
1.36028e-08
-7.02515e-08
2.0029e-07
-8.33214e-08
0.00106153
-0.000707982
-9.92509e-15
-1.33481e-13
0.000172053
-0.00018354
-3.30839e-14
2.14667e-14
0.00077577
-0.000433183
-0.000342806
-8.85096e-05
0.000135992
-2.51351e-05
-0.00138237
0.00142203
-7.39559e-05
-1.10219e-14
-2.30867e-14
-7.77696e-05
0.000361832
-2.28588e-05
2.3006e-05
-7.07901e-08
-5.2683e-06
-9.91381e-07
2.47197e-07
-1.6114e-07
-1.78428e-07
-8.96189e-09
2.00266e-09
7.91384e-10
-4.11178e-11
2.20654e-15
3.81598e-11
-0.000714831
-0.000667714
-3.32298e-05
-4.80679e-05
0.000117758
-8.28438e-06
1.61727e-05
4.07605e-05
0.00102143
2.8816e-08
2.58577e-08
-0.000953778
0.00235896
-6.42631e-05
2.31338e-05
-1.24214e-08
3.53043e-09
-2.14789e-10
-1.28948e-09
-0.000673554
-8.43437e-06
-3.9997e-05
1.76319e-06
0.000773969
1.42933e-05
0.00138093
-0.00146941
-3.38464e-13
1.70566e-12
-1.28984e-12
-3.4775e-09
-7.25083e-10
2.81343e-09
-6.1163e-06
6.35069e-08
-9.16084e-06
6.89197e-13
-1.65866e-13
-5.62141e-13
8.53803e-06
-0.00107737
0.00106883
-0.000384607
0.000545681
-0.000161074
3.88907e-07
-2.90907e-06
4.53043e-07
-0.000748808
4.60559e-05
0.000145704
0
4.03637e-07
-7.0186e-09
7.67258e-05
-1.01294e-05
-2.5396e-09
2.35265e-05
4.16657e-13
1.66037e-07
-1.65776e-07
-2.61366e-07
1.3257e-07
3.19655e-08
-0.000287599
0.00158239
4.07909e-07
4.11186e-08
0.00063405
-0.00148002
2.31719e-11
-7.12735e-11
4.23999e-11
-4.01331e-15
2.49865e-10
-3.33979e-13
1.1791e-13
3.4244e-07
-1.90657e-07
1.33536e-08
0.000635824
-0.00159376
-2.88497e-09
-1.02411e-06
-0.000100975
3.2288e-05
-6.15165e-06
-2.65253e-05
7.27319e-07
-1.32547e-07
-1.97099e-10
-7.34125e-13
2.90664e-13
-3.12915e-16
-7.33621e-13
1.07227e-05
-1.0092e-05
6.3418e-06
3.88896e-13
-1.02649e-12
-4.9485e-16
2.09113e-16
-1.25359e-12
6.04521e-13
4.57078e-05
8.57695e-14
-3.72018e-14
5.99418e-15
2.47337e-07
-3.3766e-06
-1.49267e-12
1.88067e-12
4.20729e-13
-0.000478023
4.49494e-05
0.000114168
0.00150701
-0.000876676
2.46913e-09
2.1247e-08
-1.05428e-09
-0.000376069
-1.75132e-05
0.000281336
2.82677e-06
-2.39138e-06
-1.16038e-07
2.91662e-07
-9.10528e-09
-4.70227e-10
-6.16617e-09
4.07683e-09
0.000543354
-0.000276177
-1.36757e-17
-4.33425e-15
-7.52976e-14
6.18063e-13
2.99769e-13
-9.13507e-15
-3.71404e-07
1.48847e-07
2.32695e-05
-1.29141e-05
-9.06542e-09
7.79346e-09
-1.74988e-09
6.70946e-05
-2.36136e-07
-8.89404e-08
6.63447e-08
-2.32567e-07
7.44274e-09
-1.2407e-08
-2.51731e-14
2.60315e-14
3.47115e-14
-1.22378e-06
1.56969e-07
1.08491e-06
-3.1376e-07
6.19047e-05
5.04279e-08
6.52259e-08
-1.62957e-08
-6.82514e-13
7.45436e-13
1.52834e-08
-1.9963e-08
-1.04816e-08
1.96659e-13
-7.15945e-13
4.91496e-13
-7.79189e-13
-4.76607e-13
-0.000249437
0.000297228
1.59856e-08
-1.38403e-06
-1.38438e-06
2.40411e-06
1.51573e-05
-1.64122e-05
-1.653e-12
-0.000118231
0.000253747
-0.00174006
0.00167793
6.21311e-05
0.00020264
9.80376e-05
-1.51462e-07
-1.03579e-08
4.03218e-07
4.99652e-08
-4.82145e-07
4.91509e-06
-1.54474e-05
4.61915e-16
-9.30584e-16
-5.55366e-08
-0.000561804
0.00138796
-0.00082616
2.50134e-14
-5.5736e-13
-2.77865e-09
-0.000146054
0.000142865
1.58137e-05
-4.34101e-13
-0.000680201
1.1231e-07
-1.29966e-07
6.24733e-09
-5.76305e-09
2.96918e-14
-4.07222e-14
9.10835e-09
2.66279e-09
1.4191e-06
-1.86653e-06
1.59718e-06
0.000273564
-7.40964e-05
-2.31327e-07
9.63789e-08
-0.000855539
0.000293734
0
1.65773e-05
3.04985e-06
-1.08601e-06
2.00998e-06
8.85414e-08
-1.42092e-08
1.42131e-08
-0.00174006
8.09815e-07
3.66118e-06
-7.61308e-08
2.46821e-07
4.19087e-08
-4.93141e-07
2.58656e-07
0.00151025
0.000167688
-1.04306e-08
-7.76856e-13
8.14328e-13
-2.28281e-12
1.25626e-05
-1.06255e-05
-6.71418e-13
-7.40794e-14
-0.000123024
1.7039e-09
-0.00176232
2.22567e-05
-1.75824e-07
9.69317e-07
-1.88639e-06
-4.95497e-07
7.48831e-07
-1.31325e-06
0.000516674
0.000993571
-3.88356e-13
-9.81071e-13
-1.25218e-06
-4.89799e-08
-8.18105e-06
-2.24536e-09
1.91846e-08
-1.29385e-14
-1.24753e-14
1.09841e-07
8.15637e-11
-1.19671e-05
-6.69211e-06
3.15951e-05
5.40886e-13
2.717e-06
-4.47396e-06
0.000992821
0.00134578
-1.84006e-08
1.74747e-08
-1.12919e-07
2.2261e-05
-3.94303e-07
-1.16186e-05
1.18101e-06
-5.82732e-14
2.48155e-14
8.75048e-14
-2.34605e-07
4.51357e-07
-0.000111733
-0.000965634
9.07339e-08
-7.19988e-07
2.39623e-05
-4.40855e-05
7.75117e-07
2.25767e-07
-7.78517e-07
-7.61954e-13
-3.17781e-13
2.21813e-13
-7.59315e-06
3.81392e-05
0
8.61803e-14
-8.44968e-13
7.57832e-12
5.62042e-07
-1.18918e-07
-0.00176232
2.58948e-07
5.62713e-07
-6.27053e-07
-2.72187e-05
1.98646e-05
-1.53615e-05
-1.34567e-07
-4.75912e-05
5.5392e-05
0.000594926
6.78183e-07
-1.11732e-06
6.00971e-11
-4.22914e-11
8.30285e-06
-6.2821e-11
2.88169e-08
-1.33552e-05
3.28467e-05
1.97323e-05
8.31343e-05
-0.00178972
2.73997e-05
-1.2886e-07
8.24406e-12
-8.4363e-12
2.84389e-13
-1.184e-08
8.01592e-07
6.8465e-07
5.33539e-14
-5.78659e-06
2.18119e-06
-2.13013e-07
-2.54232e-12
-7.14968e-16
-1.96399e-16
2.96923e-08
-7.62782e-13
-5.62919e-07
-1.16624e-11
3.13796e-11
-3.69629e-12
-3.35415e-08
7.5938e-07
-1.02741e-12
1.16202e-12
-1.21534e-15
-9.36087e-16
2.35294e-15
7.88598e-09
-2.17454e-08
1.79833e-05
-7.45659e-05
8.85027e-05
-3.28518e-06
1.66724e-06
-3.0108e-06
-2.72224e-07
2.58973e-05
1.01652e-07
-5.15988e-09
1.55142e-05
-3.28527e-13
-6.93281e-12
-3.31868e-11
3.25401e-11
9.92005e-08
-1.92941e-07
-0.00178972
1.13237e-06
-1.24959e-05
-1.23333e-06
1.72755e-05
-3.70397e-13
3.31097e-14
1.39063e-05
-3.23435e-05
1.69857e-06
1.58274e-06
-9.11534e-06
2.46832e-11
-7.43171e-12
8.23287e-11
-2.16214e-14
-2.9941e-15
-9.07613e-07
-0.00120191
-0.000587816
-1.33089e-09
8.06117e-09
-1.19177e-06
-2.1763e-13
-2.94189e-13
1.61627e-10
-1.57876e-10
-1.34638e-05
3.12146e-05
-1.77104e-05
-2.23973e-05
4.81642e-05
-1.21068e-07
-8.19381e-14
3.14009e-07
-3.1613e-08
1.56951e-07
2.02366e-08
7.67931e-14
-2.84571e-05
5.19556e-05
-7.32304e-13
-1.04536e-15
0.000988986
-0.000214985
1.53105e-15
-8.95729e-15
-5.94391e-06
-1.24447e-05
-8.74033e-05
0.000181931
-5.59914e-08
8.91006e-06
4.8794e-05
-1.22165e-05
-1.1503e-06
1.67701e-07
2.31959e-08
-7.01567e-17
-2.67287e-14
-1.40764e-13
6.51666e-10
1.78723e-07
1.72755e-07
-1.84429e-05
0.000490561
-0.00120191
-1.17814e-07
4.44918e-09
-1.50079e-08
2.1311e-05
0.000155244
-4.46773e-15
-6.70735e-13
-0.00138796
0.000186059
-1.13101e-12
1.24191e-12
-8.85457e-06
1.84328e-09
-4.61904e-08
-4.67249e-11
-8.58595e-10
5.38085e-08
-1.94548e-08
1.01089e-11
-1.65197e-11
0.000108393
1.89239e-07
4.7377e-07
-1.36858e-09
1.18141e-09
-0.000345539
0.000724137
-3.95775e-17
-1.50423e-10
-1.39562e-08
-1.31195e-14
-3.47997e-13
6.66706e-06
-1.18788e-05
2.48931e-13
-2.74515e-13
2.55953e-07
1.62252e-08
-2.21132e-07
0.000851789
0.000119275
-9.47462e-14
4.72704e-14
3.45231e-05
-1.72079e-12
0.000381285
1.66521e-07
0
-3.9034e-10
4.67329e-09
0.00136343
-0.00112778
-0.00010425
-6.6466e-13
0.00124907
-1.06055e-07
-7.57945e-13
-1.88994e-08
8.04832e-07
-7.03298e-13
0.00012209
-4.05546e-05
6.30713e-10
8.65005e-06
-2.70577e-06
1.60593e-05
-2.78299e-07
1.23128e-17
-1.00154e-16
1.8409e-16
5.41837e-07
1.78393e-05
1.22134e-12
-3.53371e-13
4.31974e-13
7.41681e-06
-3.38268e-09
8.92774e-10
0.000127454
0.00106985
-1.00987e-13
9.84161e-17
-1.16837e-16
7.38504e-09
9.27019e-08
1.78461e-07
2.21174e-08
-3.01693e-08
3.15327e-09
-3.6815e-09
-2.93105e-08
-2.43192e-16
7.10645e-08
0.00126729
-0.00081932
0.00024587
-6.9553e-05
-6.69681e-09
7.1745e-10
-1.15092e-08
-3.68532e-07
1.07077e-08
-1.57575e-08
-1.99403e-07
3.71363e-08
4.25455e-05
-7.60651e-05
-1.89049e-05
8.39229e-06
1.2012e-14
-1.73009e-11
-0.00015085
2.16757e-16
-4.16946e-16
-0.00052972
0.0011882
-0.000658477
-2.68547e-11
2.62944e-11
-1.5458e-05
4.09989e-05
5.1645e-18
-1.36894e-16
1.51992e-07
-1.01155e-07
0
-5.83957e-10
-6.67234e-13
2.28274e-08
-3.95687e-10
6.34144e-06
1.39228e-08
0.000324267
-0.000228713
0.00109122
-1.13207e-09
4.11373e-09
-7.32505e-10
8.66827e-15
-1.38454e-13
-7.54464e-10
4.02053e-05
-1.42466e-05
5.59955e-07
5.89395e-06
-5.60661e-06
8.52027e-05
-9.07962e-06
-7.66789e-09
-7.69668e-08
0.000407733
-8.13493e-05
8.96452e-09
3.56711e-09
-2.35914e-09
-1.50707e-18
-2.01203e-07
6.09782e-09
-2.37058e-05
-2.81073e-14
2.34787e-14
-7.30368e-16
1.91452e-08
3.62369e-05
-3.0348e-11
7.55992e-05
-0.000461909
9.67022e-08
2.76067e-08
-7.76594e-09
3.26687e-10
-1.10707e-09
0.000114359
-7.16342e-05
0.000309483
-3.94208e-14
-2.88281e-13
-4.61451e-06
-0.000374887
-0.000480652
7.71905e-18
-2.61767e-17
-0.000517863
0.000788446
-5.94367e-06
0.000516674
1.26125e-08
1.62558e-07
1.32404e-15
-3.9936e-15
1.73684e-14
2.04449e-08
4.69207e-05
3.55518e-08
1.34407e-07
2.2129e-06
6.01489e-05
-1.99467e-11
-6.63066e-12
2.36443e-12
3.27987e-08
-3.4022e-08
-1.86022e-07
1.9431e-07
5.43174e-18
-7.00604e-17
1.10862e-11
-6.50618e-10
0.00115727
-0.000909432
-0.000304963
2.92808e-12
-2.32283e-11
0.000121637
-4.6537e-05
-1.09158e-15
0.00067787
1.85133e-05
-1.69431e-05
8.66284e-14
-8.39262e-13
-2.33363e-13
-5.103e-14
-4.09365e-10
6.81875e-09
0.00139923
-0.000955583
2.98996e-07
-2.94218e-07
1.17492e-08
-2.6873e-19
7.2861e-08
4.46009e-07
-7.9453e-07
-5.52908e-07
-3.44259e-09
1.57443e-05
-9.80242e-14
0.00124361
-7.60014e-05
-0.00128568
-1.10481e-09
2.39728e-05
2.10124e-05
0.000113916
-6.08441e-05
-2.69995e-09
0.000162199
-2.77052e-06
6.67168e-08
-5.29283e-08
7.86145e-07
-1.31312e-06
-1.86133e-17
-6.17283e-08
2.32192e-08
-4.2987e-09
-2.26415e-07
7.9886e-05
4.81342e-09
-6.37588e-14
6.23811e-14
5.77568e-05
1.78745e-07
6.25706e-15
-4.10829e-14
-1.15714e-08
-9.86399e-09
6.94235e-08
2.24167e-07
-2.43438e-08
2.19977e-08
7.99722e-17
-3.1947e-19
0.00141272
-0.000916658
0.000463749
0.000731256
1.00973e-07
0.000463129
-0.000973783
1.50566e-08
6.82645e-08
-3.79127e-08
-4.86706e-07
2.98265e-07
-3.56894e-09
-8.30072e-13
3.18837e-05
-8.93164e-05
2.59498e-06
-6.00777e-06
3.2385e-13
-5.07763e-13
-4.17015e-16
-0.000664139
0.00120171
-1.5834e-18
-4.01539e-09
1.09586e-09
-1.77057e-09
1.75248e-09
2.90824e-08
7.20264e-09
-8.00469e-06
3.66999e-06
-3.3742e-08
1.62069e-08
-9.48139e-07
2.86166e-08
0.000226873
2.57487e-06
1.60183e-05
-2.52362e-07
4.3344e-06
-1.82566e-05
5.3803e-07
-4.98899e-08
-5.05049e-13
0.00134775
2.55866e-07
6.38161e-07
-2.37805e-13
6.64685e-13
-2.64416e-11
6.49374e-17
-5.93489e-17
4.50392e-09
5.58501e-09
5.92534e-09
3.83274e-05
1.88215e-06
1.26976e-05
-6.32872e-13
-2.91326e-07
-2.09299e-05
0.000356898
-5.86737e-06
-2.26244e-05
-4.79533e-10
-1.87532e-07
-7.42007e-10
-4.52073e-10
0.000138557
-6.80918e-05
1.16415e-05
-5.66007e-05
4.14982e-14
-1.45972e-13
7.39885e-19
-1.73274e-18
-6.02559e-18
1.04791e-09
-1.7453e-10
2.47697e-07
-8.43878e-07
2.14952e-07
0.000256101
-3.63364e-08
-6.27962e-08
-1.17939e-06
4.96418e-10
1.55495e-07
-1.24901e-08
8.54628e-20
-2.87829e-19
-5.45677e-15
3.85109e-09
1.09413e-06
2.69727e-14
-2.74871e-14
0.000405642
0.000108259
5.35776e-05
2.3197e-06
-2.64477e-06
8.70544e-08
2.71168e-09
-1.62717e-09
-1.60586e-10
1.03739e-06
3.48799e-05
0.00147039
-0.000376479
0.000842769
-4.18832e-08
7.09608e-08
-1.49099e-08
-0.000670306
0.000301168
6.40545e-06
-2.92258e-06
0.000335125
-0.000701877
4.66355e-06
-1.28368e-11
1.06618e-05
4.14801e-06
-3.10631e-18
8.21813e-17
-5.51948e-16
3.00612e-07
-5.13643e-08
-1.90886e-12
-4.06746e-10
-1.64926e-10
8.92199e-11
-2.66164e-08
3.35233e-08
-4.21232e-14
-1.07659e-14
4.20292e-08
-6.56634e-06
7.52316e-06
-8.68305e-06
0
4.15239e-07
8.38472e-05
-3.53754e-08
0.00122754
0.000986468
4.38151e-08
1.99534e-09
-3.23182e-05
0.000151969
-5.10254e-10
5.36826e-07
3.68149e-08
-3.40043e-05
-5.76874e-06
1.68852e-05
-0.0017831
-1.85806e-19
6.04721e-13
-1.00672e-12
3.24319e-06
-2.40399e-17
8.53785e-08
4.28678e-05
-6.29642e-07
6.3045e-07
6.6015e-17
-5.06982e-17
1.54942e-07
-2.00943e-06
5.62472e-05
0.00126623
0.000773119
1.15153e-13
-8.10694e-13
0.000201094
-0.000418463
0.00107667
-0.00058372
-2.2823e-08
2.6991e-08
-2.33102e-08
-5.67611e-06
-1.05664e-09
3.19242e-11
3.43923e-05
-2.47316e-11
-1.29545e-11
9.1574e-08
-5.8245e-07
1.37514e-19
-6.1507e-18
-4.38473e-07
3.58888e-06
-5.63444e-06
8.45026e-08
-5.02381e-06
-0.000163318
3.12458e-08
2.3497e-06
-3.9523e-14
-2.50645e-07
-3.49849e-14
9.07201e-15
4.39192e-08
-1.13343e-08
1.09542e-08
2.11207e-18
2.65099e-19
-5.47307e-10
-8.97895e-07
3.36863e-06
-8.22889e-10
6.53123e-10
4.28534e-08
-4.65628e-07
1.51444e-08
1.72118e-07
7.44421e-19
-1.47376e-18
-0.000579937
-0.0012188
5.66862e-08
-8.48675e-08
6.24352e-07
-1.57663e-08
0.00152492
-1.54379e-13
-3.64124e-14
0.000145155
2.4186e-08
9.00079e-09
-1.14937e-09
0.000720752
-0.00108884
0
2.46736e-11
7.83706e-08
-7.82855e-08
6.92113e-16
-1.52025e-14
-5.86458e-20
-4.73499e-12
1.69718e-06
-1.25922e-06
-4.79763e-07
4.56881e-07
0
0.000121631
0.000145178
1.02645e-09
3.57671e-07
-1.50772e-05
0.00107896
-2.8564e-07
6.33653e-06
5.59479e-08
-1.8986e-08
-6.85887e-15
1.87541e-08
3.81147e-07
1.74906e-13
1.5965e-08
0.000454483
-1.00518e-07
3.36358e-08
-1.68208e-16
-4.20207e-06
-9.02764e-06
4.65545e-06
3.90161e-06
-1.10134e-05
1.76162e-05
-1.47225e-08
-6.37175e-09
3.63461e-09
-1.74912e-08
-1.54765e-09
0.000113733
-2.50132e-06
1.8406e-07
-8.41164e-08
-6.8325e-09
3.18292e-08
-5.80575e-06
2.34858e-07
0.000314172
-4.21171e-06
-1.18939e-06
1.15279e-08
-2.38924e-09
-4.72306e-19
1.61197e-06
1.27765e-05
-0.00112278
-3.53208e-07
3.65061e-06
-9.49246e-15
1.52e-17
-7.72009e-17
-5.93021e-06
-2.81813e-11
1.47439e-06
-1.02383e-06
-2.59022e-07
-7.81463e-09
7.19634e-08
1.70984e-06
2.79387e-05
-0.000252387
4.99466e-19
-3.0598e-19
0.000837472
0.000231115
-9.9368e-08
-7.93606e-20
-2.51317e-07
-1.53672e-05
6.9659e-06
4.05983e-07
1.00156e-07
5.63087e-05
0.000297402
-8.72744e-13
-2.24657e-13
-1.56636e-11
-1.11148e-06
1.35473e-06
1.13962e-06
-3.02028e-06
2.56585e-07
-5.54816e-07
1.00888e-06
-2.12311e-07
0.000285536
-4.72829e-05
-0.000238254
3.39831e-14
-9.44925e-14
2.36374e-05
0
-3.16294e-06
2.6663e-12
3.10104e-08
-1.91802e-08
7.00143e-10
-6.30953e-10
-7.09952e-11
0.000228111
6.06656e-18
-7.749e-18
3.11179e-06
0.000523326
-7.59602e-05
8.78894e-20
-6.73389e-20
2.36097e-08
-3.41758e-08
-4.00929e-08
1.05515e-08
9.76462e-05
6.16103e-09
5.15547e-10
-2.15629e-08
-8.22507e-06
1.87182e-07
1.18845e-08
-2.59241e-15
-4.82662e-09
3.29613e-07
6.60398e-09
1.82706e-06
-2.17314e-06
0.000227738
5.77982e-05
1.65178e-06
-6.40535e-08
-3.93479e-06
-1.29402e-06
-3.91086e-09
6.10154e-10
-5.61322e-09
-1.37834e-05
2.16661e-05
-1.07961e-17
-1.08392e-07
1.0908e-07
-1.04145e-19
2.98539e-05
1.40134e-05
-8.48055e-06
5.68938e-05
5.07983e-05
0
1.26017e-12
-0.000596591
0.00132273
1.91828e-16
-8.68358e-16
-4.8237e-06
1.25704e-05
-7.57665e-05
-2.24718e-05
0.000254429
3.65959e-05
-7.00159e-08
5.77492e-07
-3.3649e-07
4.0014e-08
7.30376e-07
-9.70995e-07
2.575e-09
5.27329e-08
1.94985e-07
-3.72705e-06
-1.12736e-20
4.94389e-19
1.27985e-17
-1.54193e-17
-4.5303e-13
-3.34441e-06
0.000309813
4.91236e-10
1.37974e-06
3.90342e-05
1.8998e-08
-3.51232e-18
1.01055e-06
-7.39018e-07
-7.12558e-09
0
-7.18282e-09
-5.49961e-06
-5.03781e-05
0.000238791
-5.10949e-08
-4.24216e-10
1.29763e-09
5.07361e-10
0.000112516
-0.000487403
-1.07686e-06
5.35447e-11
-5.41188e-11
-8.85407e-09
1.41451e-08
-6.52116e-06
3.14645e-20
-1.37031e-19
2.58525e-05
1.03742e-06
2.32377e-05
1.88125e-07
-1.80681e-07
2.01917e-09
1.49943e-06
8.3419e-06
4.92575e-07
5.86687e-08
-5.78137e-08
-5.03322e-07
6.77301e-06
3.48405e-08
1.55522e-05
0.000390748
7.59707e-08
-1.77328e-11
0.000939904
1.28456e-13
-4.6295e-13
1.06358e-07
1.10379e-07
7.16054e-06
-4.2612e-10
5.56723e-09
1.72962e-18
-1.43791e-18
-8.33587e-08
1.5098e-06
3.03353e-05
3.18356e-13
5.52345e-12
-4.69859e-14
-1.09836e-05
-4.34768e-08
1.44425e-08
1.91076e-11
-1.35557e-10
4.58901e-06
1.18709e-06
-4.20284e-10
6.97901e-10
-8.5882e-13
-2.08555e-10
0
-3.37839e-06
-4.86864e-21
-1.06686e-14
-3.56553e-08
-5.00209e-11
3.56916e-08
-8.27513e-09
-4.94719e-10
9.39343e-10
-0.0011705
1.09446e-06
-5.43886e-07
-1.13309e-09
2.45027e-11
2.67067e-19
-1.17759e-19
2.00628e-09
3.61665e-06
-1.08881e-06
1.16929e-06
-1.78401e-10
4.88632e-07
4.69715e-14
-5.01571e-17
2.57188e-15
-1.43723e-14
0.000120878
-8.31013e-18
6.38906e-17
-8.44822e-10
3.5014e-09
1.71045e-05
4.3103e-06
-8.24753e-06
7.79246e-06
1.36636e-06
4.76611e-08
3.15271e-07
-1.24963e-05
-1.61501e-05
1.01979e-09
-2.76209e-09
3.34992e-06
-1.18234e-08
2.74846e-10
6.70299e-07
-6.70878e-09
3.61938e-07
-6.45598e-17
9.18747e-07
4.22966e-06
-3.62017e-07
-1.05804e-08
2.86498e-06
-1.57423e-05
8.51805e-06
3.18889e-20
-4.5273e-20
-3.12357e-09
1.12058e-08
7.89103e-07
-1.45079e-06
2.26037e-05
-1.0733e-05
1.32458e-07
-3.89984e-18
-7.01218e-06
-7.43705e-07
1.8781e-19
-3.78608e-18
0.00123453
-0.00123455
1.39106e-14
-2.23974e-15
1.88375e-13
-5.24125e-08
0
8.20432e-07
-7.19655e-07
0.000463851
-5.17767e-10
3.31957e-11
-7.47545e-07
4.09416e-07
-8.94386e-06
8.26255e-06
2.33744e-11
-6.88491e-08
6.59104e-09
-1.4117e-08
7.29916e-06
6.0667e-08
-4.62349e-19
-1.99275e-06
2.62528e-11
-4.91855e-10
6.36214e-11
-9.90722e-09
7.22784e-08
3.73341e-08
8.85227e-10
4.97016e-17
-5.9244e-17
-4.33008e-07
-5.84136e-08
-3.0808e-11
4.00165e-10
-7.58334e-11
4.00805e-09
-4.78431e-09
7.41898e-11
-1.05201e-10
2.70415e-08
2.52566e-07
3.51097e-06
-6.31468e-07
-6.89346e-21
5.29726e-11
-7.22898e-09
6.09224e-09
-2.79169e-09
-6.36934e-08
4.86204e-07
-1.5167e-10
-1.0395e-20
-1.18055e-07
-5.34592e-05
-0.000322609
-7.74924e-09
-3.36308e-10
2.28144e-10
2.31336e-10
-7.89937e-07
-3.7939e-16
-2.43812e-08
0
5.00448e-06
3.98259e-07
7.0604e-12
-9.17307e-14
7.32236e-12
-7.21551e-11
-4.44552e-07
1.25562e-06
1.79306e-20
-2.18412e-20
-0.000500291
0.000358595
5.71613e-08
-1.26582e-08
6.45583e-13
-4.33187e-12
-8.08061e-16
3.55524e-14
-8.71329e-14
-1.14353e-05
3.62625e-06
3.04874e-10
-1.67637e-05
6.64966e-06
1.24331e-06
-6.31424e-07
-5.76204e-17
7.68433e-10
4.70527e-10
9.77498e-12
7.09022e-07
-5.34308e-08
1.8826e-08
-3.11696e-10
3.7319e-13
6.04062e-07
7.49452e-09
3.15263e-07
-5.36571e-07
-1.79651e-09
-1.7988e-06
-2.92593e-11
-4.61429e-16
-2.21273e-10
5.25625e-11
5.19283e-10
1.27917e-08
-5.2007e-11
2.47866e-07
-4.55126e-07
5.22205e-09
3.8676e-17
-2.9479e-17
-1.25055e-17
-2.52992e-07
-1.20105e-06
1.28015e-06
4.26526e-05
0.000288141
-0.000330793
4.04805e-18
-7.09771e-17
1.31855e-07
-2.95916e-20
-2.00992e-07
-3.01504e-06
2.7084e-08
-3.01121e-06
-3.19237e-06
9.85998e-07
3.84232e-11
-2.98425e-11
1.00377e-10
-1.70748e-10
0.000272031
-3.31444e-06
3.69142e-06
-3.30878e-11
3.65062e-11
-2.1362e-07
0
1.22027e-17
-6.20405e-18
-1.05826e-09
6.77309e-10
-1.30953e-19
3.45355e-07
-5.32336e-14
1.13899e-12
-8.05878e-10
3.05715e-08
9.9451e-12
9.34094e-07
-1.27605e-07
-1.86944e-06
2.40523e-07
5.23279e-11
-1.19439e-10
-2.58433e-08
-3.24099e-11
6.93521e-11
1.11663e-06
-4.29104e-11
2.31751e-10
7.71665e-08
-3.49824e-06
4.1318e-06
-8.82186e-06
0.000415468
2.06556e-20
-5.11878e-20
-6.4539e-11
2.92309e-10
6.14678e-12
3.53597e-11
2.39879e-08
1.63936e-10
5.37359e-11
-1.79718e-11
0
-1.26196e-06
8.95863e-07
-1.81735e-06
1.95501e-06
6.3703e-09
8.13288e-19
-7.40857e-19
-2.7543e-10
1.02775e-09
-5.35177e-18
-7.95152e-08
-4.60559e-07
-1.85635e-09
4.20067e-09
-3.87029e-08
3.39212e-06
-3.74502e-06
4.45512e-11
-1.16001e-10
-1.13016e-05
-2.23885e-07
5.61308e-07
1.65306e-10
-1.74312e-10
-9.69913e-10
6.3693e-09
-5.33511e-07
7.6521e-08
1.52559e-10
-1.44026e-10
2.46587e-10
0.000222731
2.0275e-05
-1.12103e-10
0.00017037
1.00576e-12
0.000719207
2.06438e-12
-4.84411e-22
-6.05742e-09
3.2342e-08
1.23063e-12
-4.96002e-18
-3.38213e-11
1.235e-12
2.94e-06
2.24104e-08
-6.36244e-08
-6.62883e-08
-1.08783e-07
1.42567e-07
-3.06996e-09
2.84886e-12
-3.27429e-07
2.69595e-12
-2.46598e-07
8.79392e-08
-1.85288e-15
1.59102e-13
-2.31992e-13
0.000202091
2.06331e-05
-3.14688e-08
5.57597e-08
5.65388e-09
-1.15113e-05
6.89337e-06
1.81537e-10
-1.49674e-09
7.83494e-16
1.16639e-16
-8.33346e-16
-2.0196e-10
-7.53354e-07
1.11375e-11
-5.92741e-07
1.10941e-07
1.44563e-11
-3.38037e-11
-1.26061e-08
4.33603e-10
1.62801e-13
0.0011228
-3.38079e-19
2.86471e-19
-1.66916e-19
5.27335e-11
-1.17592e-10
3.45521e-11
2.66502e-10
-7.00331e-12
-3.6745e-13
0.000496389
-3.99697e-05
1.13422e-11
-1.57986e-18
8.4864e-13
4.87967e-10
5.8181e-12
1.37758e-10
1.83107e-10
-2.64522e-14
0.000305136
-1.41527e-08
2.12208e-10
-9.72832e-11
-4.81956e-08
1.20692e-10
1.34034e-12
-2.11648e-07
-8.83952e-08
8.82691e-09
1.5959e-19
-6.51939e-19
-2.47718e-06
2.30016e-06
-8.66422e-09
1.32866e-12
4.70595e-10
-1.48384e-09
0
8.08577e-08
-5.36591e-09
-5.54127e-08
3.627e-08
2.6277e-14
3.53867e-13
-1.32888e-08
-4.31147e-10
1.16158e-11
1.4617e-12
-1.17435e-12
5.80928e-06
-5.06373e-06
5.42603e-12
-1.23516e-12
1.79218e-12
9.57373e-11
3.52625e-09
-1.38294e-20
-4.59594e-07
1.2119e-08
-1.26618e-07
1.55973e-08
-1.65645e-21
2.78214e-09
-5.87967e-12
-4.52701e-07
7.25673e-08
1.11834e-10
4.63155e-11
-1.45637e-12
3.46707e-12
1.65441e-07
8.45383e-12
-6.11722e-12
-4.91424e-13
9.30378e-12
-1.11439e-06
3.43427e-07
-3.28226e-12
1.42401e-11
-1.31255e-08
1.31707e-09
-5.64048e-15
2.8139e-10
-1.35338e-09
-1.37634e-11
4.80788e-11
2.60845e-05
-1.01393e-05
-1.12235e-10
1.10926e-10
-4.46677e-12
1.35317e-12
-1.15609e-12
4.27605e-21
-4.57298e-21
-7.02754e-10
-2.1184e-08
-4.40199e-08
5.29597e-09
-4.67953e-11
2.32112e-10
6.2841e-07
-3.34729e-07
3.87253e-15
-2.41763e-15
-2.55207e-09
9.71282e-10
-2.29402e-08
9.36855e-09
1.51587e-12
-5.47318e-09
3.14242e-13
5.99851e-09
-1.15961e-10
4.84241e-14
-2.2826e-10
6.46125e-10
-3.92136e-12
2.26326e-12
-6.40593e-16
5.38964e-16
-9.79712e-09
1.147e-09
2.87654e-14
-3.37428e-12
6.36271e-13
5.38919e-12
-4.50856e-12
4.65409e-06
-1.0257e-09
7.24248e-07
-1.01682e-11
-1.23603e-09
2.19235e-10
1.0248e-11
-1.04351e-11
3.3028e-20
-3.3548e-09
-2.49497e-10
2.04438e-13
-6.08248e-13
5.64253e-14
-1.68984e-08
3.29446e-09
2.20582e-06
2.53501e-12
-2.37328e-07
2.24251e-08
1.50286e-14
2.03396e-15
-6.59816e-15
2.93231e-05
7.79703e-12
-1.3925e-11
8.85501e-14
-5.7247e-16
-2.75802e-21
-7.01192e-09
1.69209e-11
-1.3212e-11
-6.92326e-08
1.50623e-08
2.52093e-13
4.35376e-14
-2.36524e-09
1.15737e-17
1.45594e-18
-8.05265e-18
-8.31675e-11
3.43574e-12
6.68737e-13
-7.29165e-10
1.33228e-13
5.19335e-12
-2.33902e-12
-6.42674e-10
4.83941e-10
7.86825e-17
-8.44083e-17
-1.37532e-08
3.47031e-09
1.75938e-12
-1.57676e-09
3.20907e-09
7.44443e-05
1.16568e-05
-0.000100242
4.58131e-13
-6.43736e-21
-1.14065e-09
-3.32526e-07
-2.06179e-09
-8.65251e-10
-3.30644e-11
0
-1.75038e-10
1.3053e-11
-1.66288e-12
5.703e-06
0.00030841
5.79278e-09
-1.63511e-08
-9.63545e-07
4.78434e-17
-2.2841e-17
-7.80669e-11
-6.85583e-05
2.62332e-05
2.36014e-05
1.27502e-10
-2.57784e-12
9.4272e-11
4.19537e-21
-5.91795e-21
9.2243e-13
-1.0764e-11
-1.28671e-12
4.04288e-14
2.09548e-13
3.65965e-12
3.1287e-08
3.49571e-11
-1.02385e-10
-0.000161961
0.000182243
-1.19552e-13
7.55308e-14
9.94049e-13
8.26934e-14
-2.25176e-08
1.19859e-09
2.22587e-13
3.69935e-08
-8.18858e-08
-2.90592e-14
5.63641e-14
-3.5434e-12
3.83057e-12
-3.37054e-10
9.58088e-11
-1.18952e-09
1.65044e-10
-1.88977e-09
6.07552e-10
5.47633e-18
-2.39297e-19
-3.69362e-14
6.73025e-14
-9.61551e-11
2.24977e-05
0
-3.71899e-09
-7.66879e-09
6.80511e-10
0.000433055
-0.000320539
-3.49433e-10
-5.06444e-14
1.09047e-13
2.55188e-12
-8.12369e-14
1.58541e-13
-1.5129e-08
8.02597e-10
6.32622e-13
4.83923e-14
-3.0627e-14
1.95537e-12
-2.11139e-12
-9.30461e-14
3.20418e-13
-3.89559e-09
9.93065e-10
0.000230336
-0.000187683
-2.26835e-22
7.2951e-09
-8.02644e-09
-3.09236e-13
8.74116e-13
4.28338e-10
-2.5851e-11
1.93026e-10
-3.05394e-12
-8.31651e-11
-1.38181e-05
0.00048773
-6.97861e-10
3.7278e-11
-1.34661e-12
1.27502e-14
-1.4171e-14
-5.34589e-05
1.98952e-06
-8.58244e-11
-1.82058e-11
-8.69873e-13
2.42695e-12
0.000421263
-9.39992e-11
5.35463e-12
3.8318e-14
1.62364e-19
-9.70397e-20
2.65308e-16
-1.01511e-10
2.3038e-11
8.36682e-08
-6.1726e-13
3.59903e-14
-9.99566e-11
-7.98159e-09
0
-8.87171e-12
4.74845e-14
-5.58379e-14
7.77016e-14
2.41846e-15
1.03623e-11
8.02127e-09
-6.87448e-13
3.19007e-12
-3.38101e-12
-2.94229e-12
7.22671e-14
-4.52079e-14
-1.29961e-09
1.1394e-10
-2.41216e-12
2.5343e-12
1.71322e-10
-8.8512e-10
2.72185e-15
0.000577246
1.41758e-09
3.24181e-15
5.05163e-11
3.75524e-15
6.55052e-13
-4.44547e-13
7.10003e-11
1.66697e-17
-6.16669e-17
0.000245778
-4.36868e-05
0.00082616
-0.000393105
3.43221e-12
7.33717e-13
-6.41256e-13
7.12518e-15
0.000198495
-4.02046e-13
8.56613e-14
-9.35871e-14
-8.75344e-16
-7.25429e-14
1.15623e-13
1.23949e-14
1.79525e-15
-1.37529e-13
-1.2822e-10
2.77114e-11
7.38417e-20
3.33697e-12
-5.70976e-14
7.87438e-14
-3.68433e-14
9.13382e-21
-4.71968e-20
-4.42524e-10
4.67699e-11
-4.112e-12
-2.71577e-11
-8.37959e-14
2.05917e-13
7.18332e-14
-4.9894e-11
-2.53528e-13
4.44078e-13
-2.97302e-13
9.39491e-11
-5.06594e-11
-1.57028e-12
1.11952e-13
1.16142e-14
3.59343e-20
-4.81437e-21
9.70826e-11
-8.84473e-12
-8.69733e-11
5.91142e-12
6.04815e-12
-1.04276e-11
-2.1733e-12
5.06069e-11
-9.64107e-14
6.13259e-15
4.21474e-14
0.00046277
-0.000232434
2.15981e-13
9.58183e-16
-1.14021e-10
8.19036e-12
-2.1141e-12
-8.8121e-08
4.47248e-09
-2.19187e-12
7.03805e-13
1.02025e-11
-2.2013e-11
3.9145e-12
0.000142231
-9.50459e-10
6.18977e-11
9.80919e-14
-1.24966e-13
2.97857e-22
4.03258e-15
-9.63567e-14
2.44416e-15
-1.17434e-11
2.89887e-12
9.39252e-14
3.23395e-08
-1.17898e-13
-2.58339e-14
1.12467e-15
-3.72334e-13
3.86362e-14
-9.16378e-16
5.06366e-11
2.60524e-13
2.54673e-13
-5.91296e-12
1.94907e-12
-6.75927e-13
1.36713e-13
-4.66368e-14
4.43207e-16
-2.01259e-15
1.4954e-09
-4.28974e-09
-1.19852e-13
-5.36274e-15
3.07299e-15
4.84032e-13
-5.6427e-13
-1.06033e-12
6.75787e-15
1.90009e-11
-6.69276e-12
-4.83384e-12
1.04252e-16
-9.70714e-17
-6.14252e-14
-1.10148e-10
1.63811e-11
-3.42889e-16
-0.000199262
9.35067e-15
-7.11866e-15
6.21381e-13
2.05082e-11
-3.81641e-11
5.66732e-15
0.000539335
1.23165e-14
-5.54617e-13
1.24499e-13
-3.98212e-15
-1.06173e-11
1.47027e-13
7.21366e-15
-7.54434e-15
-2.8747e-12
1.98632e-13
-8.72868e-22
2.71412e-21
6.64309e-05
-6.30394e-14
1.54812e-15
0.000174452
-0.000362135
7.85174e-17
-9.99828e-16
-3.54503e-11
4.8587e-12
-4.87379e-12
6.76658e-13
1.25022e-11
-2.93232e-12
2.32205e-14
-1.69758e-14
-1.54714e-13
6.13382e-13
4.49344e-09
7.05422e-13
-3.57819e-09
-2.02343e-13
-5.57572e-14
0.000355956
-0.000181503
3.4886e-12
4.86655e-16
-8.9816e-14
-2.04253e-15
2.60295e-15
9.43786e-16
-8.25697e-18
-1.39258e-15
2.65377e-15
7.93833e-13
-9.64399e-13
-5.46184e-14
2.5609e-15
-0.000134397
-0.000206928
0.000163241
-1.48597e-15
3.05049e-15
-2.81242e-11
1.89132e-12
0.000393105
-0.000250875
4.31988e-16
-2.67361e-12
5.0789e-13
-8.26547e-05
0.000106202
-1.83258e-15
3.81997e-15
8.409e-15
-5.14801e-15
-2.44235e-15
4.7267e-15
1.56801e-18
-0.000459547
7.32803e-05
0.000388604
-3.15161e-15
8.63208e-15
-3.32041e-15
-0.000102626
0.000123598
1.16775e-16
9.88691e-13
-2.5929e-17
-6.29225e-15
1.56832e-14
-7.94936e-12
1.2566e-12
6.60379e-14
-9.58977e-16
3.3803e-14
2.2531e-12
-9.65842e-13
7.01174e-13
-2.13597e-14
-3.78949e-14
4.01222e-14
1.28788e-12
-1.03383e-12
0.00016119
-0.00141435
0.00128101
5.64613e-11
-1.22024e-10
3.68799e-15
-4.10722e-15
3.57434e-14
-7.09385e-13
-2.46854e-05
2.79537e-14
-5.53809e-14
9.37215e-17
-1.47171e-17
1.26922e-10
9.78489e-16
1.74405e-05
0.000123522
-1.14062e-14
1.33084e-14
-3.99948e-13
1.55362e-15
-1.34189e-13
1.19026e-12
-1.37422e-13
1.98473e-14
4.70832e-16
6.1744e-18
4.98143e-15
-9.10327e-16
6.32497e-14
1.21521e-18
-1.70921e-13
2.04226e-14
8.50051e-18
-8.70724e-18
-8.47627e-20
3.26621e-16
-2.5939e-16
9.6687e-20
-3.74403e-19
1.86544e-17
-5.11775e-14
3.97461e-15
-1.42821e-15
1.38376e-12
-1.79259e-12
7.63531e-15
-2.17753e-15
1.32078e-12
-3.57512e-13
-4.40507e-12
1.12335e-12
5.27681e-15
-1.1333e-15
7.76748e-14
-9.27956e-14
1.16287e-14
-5.62222e-22
-1.30738e-17
-5.57452e-15
2.23664e-16
2.66521e-13
-1.50274e-14
-1.07383e-14
7.10594e-15
-6.34541e-16
7.44545e-13
-1.80594e-12
-9.66447e-15
2.70315e-15
-1.55512e-16
1.27123e-10
2.78207e-13
-7.60201e-16
-7.42675e-16
7.73547e-14
1.77876e-12
2.23799e-22
-2.61651e-13
-1.37956e-12
3.31472e-13
2.53209e-12
-3.86154e-16
0.000166527
-0.000300923
5.7889e-14
0.000280917
-0.000114391
-7.15576e-14
4.42743e-20
2.06812e-15
2.92552e-16
2.81965e-16
-8.61426e-17
-8.94473e-14
1.88543e-14
0.000250875
-0.000127353
-6.02783e-13
4.91359e-13
9.27237e-16
-2.00008e-15
9.94139e-05
-1.24008e-15
4.55848e-17
0.000590637
-0.000711574
2.13195e-12
-2.36037e-12
9.6037e-16
2.42842e-15
-0.000102428
-1.52197e-17
5.02585e-19
8.67903e-17
4.28818e-16
-2.04426e-18
1.27266e-13
-1.31862e-13
1.03799e-15
-1.93848e-17
2.48452e-12
4.75669e-14
2.8093e-12
-1.15521e-12
4.32214e-18
-1.1823e-13
-1.87826e-15
1.35452e-17
-5.8031e-19
5.86611e-19
-5.98521e-15
1.73913e-15
1.13358e-13
-1.90549e-14
3.1099e-19
7.9247e-19
-5.13007e-13
2.16999e-13
-0.000225414
0.000122986
-3.61979e-15
2.07087e-15
-0.000106202
8.15168e-05
1.74174e-13
-1.17138e-13
6.45029e-14
-1.92516e-14
3.91818e-15
3.472e-15
5.88745e-17
-2.02881e-17
-1.13874e-13
7.56454e-14
-1.09421e-18
3.72531e-18
5.71623e-18
-1.58707e-20
-1.37243e-15
0.00127116
-1.58792e-14
-1.33778e-15
-2.384e-14
5.4669e-15
9.90027e-13
-2.62289e-13
-1.77372e-16
0.000345442
-3.70114e-05
-0.000310904
-1.16932e-14
2.58062e-15
2.77101e-15
-2.91148e-15
1.36636e-13
-5.8273e-14
3.64689e-15
-2.46835e-15
-2.48757e-15
0.000127353
-2.79391e-05
-2.88363e-16
2.76709e-16
-5.27271e-14
1.3773e-14
4.61327e-15
5.78062e-14
-9.30604e-16
8.67086e-16