/*--------------------------------*- C++ -*----------------------------------*\
  =========                 |
  \\      /  F ield         | OpenFOAM: The Open Source CFD Toolbox
   \\    /   O peration     | Website:  https://openfoam.org
    \\  /    A nd           | Version:  8
     \\/     M anipulation  |
\*---------------------------------------------------------------------------*/
FoamFile
{
    version     2.0;
    format      ascii;
    class       volScalarField;
    location    "0.5";
    object      alpha.water;
}
// * * * * * * * * * * * * * * * * * * * * * * * * * * * * * * * * * * * * * //

dimensions      [0 0 0 0 0 0 0];

internalField   nonuniform List<scalar> 
1924
(
0.282904
0.00127236
1.91683e-05
0.000189587
0.00016825
0.000240086
2.12957e-09
1.08088e-06
1.06941e-06
9.07747e-06
1.08032e-07
2.16443e-09
0.999499
3.77246e-09
5.34014e-05
6.39899e-05
0.999416
1.50124e-09
0.452893
2.00051e-11
0.999653
0.0166158
0.973428
1.98146e-11
0.132176
0.00851086
0.00436722
0.000928316
2.22271e-05
1.526e-09
0.997153
0.0163078
0.175365
0.999183
0.000136045
0.986878
0.016986
3.28674e-05
1.08413e-06
0.99895
0.0144667
0.999605
0.00832107
0.990781
1.35142e-09
4.88165e-06
0.0232969
1.36541e-09
1
1
0.000828304
0.999582
0.0253658
2.33433e-06
0.143149
1.26524e-06
0.304126
1.33121e-09
-3.88382e-07
7.27409e-05
0.990093
0.000142726
0.943458
8.82686e-08
8.09428e-08
1.3781e-09
0.000590774
0.996276
4.81726e-06
0.028187
0.0366621
0.000162491
8.85065e-08
1.17335e-09
8.14109e-13
0.123144
1.48341e-09
9.18868e-13
1.38898e-09
0.260908
3.29437e-11
0.000284517
1.26828e-09
0.999496
0.487639
0.995544
6.02466e-06
2.79193e-05
1
0.323904
0.00156031
0.000100544
4.81726e-06
6.4222e-06
0.605944
5.14143e-14
9.34006e-10
1.09548e-10
0.000213098
0.0366621
8.70489e-06
0.996603
0.000214397
0.000100544
6.87533e-06
5.84094e-11
0.00158281
0.08886
4.94925e-05
5.39317e-06
9.19576e-10
6.03312e-06
3.30264e-05
4.11679e-10
1.51466e-09
0.997158
8.62863e-06
0.000890177
0.00560081
2.17229e-09
0.838912
1
0.999767
0.951774
0.000134869
0.000493447
0.0362206
8.90037e-13
2.42181e-05
1
8.93833e-10
0.000603828
0.31604
1.24211e-09
0.998796
7.67292e-06
8.74605e-06
0.000360765
2.02154e-11
1.24526e-05
1.89992e-08
0.000628279
0.00948698
0.0545529
0.000164583
1
0.000509653
0.0361954
0.00108966
0.000429516
1.40277e-09
1
0.0361954
2.32428e-05
0.000255796
0.0005342
1
8.62861e-06
1.01474e-09
0.0224793
3.36533e-10
0.31604
1.25618e-05
1
0.00155567
0.0008151
0.00155265
1
2.12144e-09
0.000749083
7.19224e-05
2.77393e-05
2.47466e-11
0.000115601
5.59737e-08
0.0250109
7.14238e-09
0.119794
0.987182
8.71204e-06
0.0282847
0.00448173
8.28822e-11
0.000699552
1
0.00299464
0.0733813
0.000436849
8.64023e-10
3.14055e-10
0.009168
2.59308e-08
1.13005e-09
8.59322e-06
0.000253382
1
0.000482803
0.0501773
0.0509196
0.0478126
0.703775
0.00188686
0.00162233
1.89046e-08
6.31595e-05
0.0124934
7.66428e-06
0.0546132
0.0362206
0.31604
1
0.00160135
1.57217e-10
0.00063217
0.000423613
4.58441e-11
0.00677633
0.0206363
1.16949e-08
8.59218e-13
0.000361408
1.40277e-09
0.00162233
1.99056e-08
1.34738e-08
0.000482803
1.36155e-09
3.22843e-12
3.71361e-06
0.0479361
0.166092
0.00154384
0.0523607
0.114057
0.00021002
0.0277608
4.44759e-09
1.11637e-08
8.73447e-05
1
0.00813131
0.0120706
2.84366e-11
0.0547324
0.0580034
0.165498
1.15117e-08
9.71089e-10
5.49536e-11
2.30832e-11
0.000314503
1
3.44738e-06
0.00162233
6.56028e-10
4.37366e-08
0.00892484
0.0483949
0.00036142
1.08762e-08
0.000361408
1.69676e-05
4.94925e-05
9.77994e-11
0.0362055
6.19207e-13
0.999582
2.36112e-11
0.0719579
0.00982753
0.0458255
0.000490212
0.0198036
0.0430591
0.000583842
2.04168e-11
1.19451e-10
7.57357e-05
0.00118931
0.0401821
0.847151
1
0.00156031
6.41765e-06
0.707029
3.45217e-10
6.84874e-10
1
2.46201e-10
0.0130923
1.59952e-05
1.1841e-05
6.36558e-06
1.37455e-08
0.948679
0.00138935
1.86881e-07
0.523343
4.45232e-12
3.75048e-08
1
0.000157603
1.52629e-10
0.0128758
1.08183e-10
0.000113351
0.975347
7.21823e-11
0.0483949
1.66278e-09
0.248298
0.00118322
1.16178e-06
0.614849
8.45248e-10
0.999146
0.000381205
1.18352e-10
8.44355e-06
0.000663657
1.89013e-06
0.105359
9.09826e-06
0.00661783
0.00556047
1.09212e-13
0.00128938
0.0224976
5.00226e-09
3.71176e-10
0.0131937
3.33615e-05
0.612302
1.03742e-10
5.38438e-13
9.96924e-06
2.009e-05
2.03939e-05
6.80248e-07
2.62951e-05
4.79083e-13
0.000214527
0.432432
0.546547
1.96146e-06
0.000204358
0.0513466
1.89544e-05
0.000296107
0.0122219
0.0289136
0.00444501
0.0074833
6.07515e-10
0.936204
1.52907e-12
1
2.46201e-10
0.0291452
1.90862e-14
1.44606e-05
3.20195e-07
3.60633e-10
1.00824e-05
0.00635909
2.67554e-05
0.607009
0.388663
1.16274e-06
1.45813e-05
7.63856e-11
0.000564537
0.0160229
0.00552093
0.000110458
0.490012
5.77069e-07
2.78321e-06
0.0150943
1.94755e-05
1.97473e-05
7.48796e-12
0.00023687
3.48527e-06
0.0140837
3.15344e-11
5.36039e-13
1.01229e-05
0.00990985
1.46023e-05
0.0271326
0.184212
0.000252069
1.05748e-05
1.057e-07
0.167407
0.0564315
0.249586
1.98837e-10
0.00442252
1
3.75723e-14
0.98383
6.87533e-06
1
1.0394e-05
1.66405e-11
1.73084e-05
0.0163806
0.0564315
2.7438e-05
0.00749211
1.05439e-09
1.16949e-08
1.26e-06
0.0033937
1.18487e-14
3.02332e-08
0.770846
9.47079e-09
8.52561e-09
0.116476
3.19612e-11
0.848529
0.00449462
1.4657e-10
4.41537e-10
1.01646e-05
0.591457
0.000202799
8.9019e-06
1.08401e-13
4.94925e-05
0.000597756
1.98719e-07
0.00928878
1.12056e-10
0.697049
1.16949e-08
0.0111926
0.0324929
0.0557237
4.05107e-05
0.00150052
5.11735e-05
0.312186
0.000147637
9.37563e-14
9.93161e-05
8.71122e-06
0.000262151
0.356809
1.38316e-06
5.3898e-11
0.0558832
8.1886e-05
2.54636e-11
7.31611e-06
0.00015273
1.97722e-05
2.889e-13
0.398092
0.994302
0.000102034
0.988395
9.84682e-06
1.89544e-05
0.000361964
1.38258e-06
1.75185e-09
0.0550171
0.00290462
8.68251e-10
3.25793e-12
0.412156
1.71465e-13
4.11526e-06
6.28484e-09
4.33936e-05
0.00811084
0.000175973
4.79122e-06
0.00455589
5.01699e-05
0.5795
0.00388527
3.20721e-05
0.00799029
0.000913854
7.58775e-10
0.897045
0.000444119
0.000612507
2.10643e-09
1.81677e-09
1.52013e-12
1.99515e-05
8.71122e-06
0.0300896
0.0067905
5.18475e-10
2.4055e-05
0.0273112
0.000804775
0.987676
1.18622e-06
3.38976e-07
0.0563914
0.0354655
8.22888e-11
2.14288e-15
1.07311e-15
8.71122e-06
1.28173e-06
0.000329589
2.32152e-05
0.241419
9.93161e-05
5.92658e-05
0.00184194
0.000103629
1.08203e-06
1.83606e-16
3.65382e-11
1.26e-06
0.000551469
6.0731e-13
0.574682
0.0561369
0.00150519
2.97728e-05
2.46477e-08
0.00271029
0.990118
0.991089
2.51868e-05
3.45992e-06
0.666967
0.99568
0.000804773
0.453877
0.00799796
0.0104907
3.74095e-14
4.11949e-14
3.05196e-05
1.07112e-09
8.85065e-08
2.02178e-05
3.64547e-11
1.25452e-05
0.0126308
0.00814903
0.000171788
0.00138991
0.977106
0.77136
0.000189064
0.189953
9.55976e-06
0.000494554
9.81792e-05
0.130907
0.00452443
0.0275304
0.973125
2.08464e-16
1.01999e-09
9.56087e-10
0.0692735
3.8661e-14
0.00077752
0.0528901
8.71122e-06
6.24023e-14
0.00522143
0.989509
0.991362
1.33333e-10
0.0930412
0.358489
2.00863e-05
7.68035e-05
0.00823743
7.55625e-07
0.0283646
9.47191e-09
0.00015681
2.26831e-16
0.000247004
0.0151716
0.000118006
0.102744
9.29161e-06
0.00125225
8.33697e-11
0.000207694
3.12669e-11
2.11314e-05
9.46879e-06
3.32129e-14
4.74635e-08
0.00152826
9.47944e-08
0.000747226
1.57453e-06
0.0013242
1.51195e-15
0.882709
5.80806e-05
0.000516518
0.000112716
0.989529
3.00261e-10
0.415495
2.00865e-05
3.87854e-06
0.988187
2.82576e-08
9.47944e-08
3.26968e-12
1.50273e-16
1.02816e-09
0.000443238
1.39509e-05
7.77147e-10
0.540954
2.00865e-05
0.000232044
0.716726
0.00098857
9.1306e-06
3.09046e-11
4.05677e-05
0.000244292
8.23157e-10
7.91042e-06
0.542334
1.35302e-05
1.12963e-13
0.0129177
0.0170874
0.00467002
0.0242784
1.4628e-06
4.53199e-06
0.117953
0.00226099
5.81948e-05
0.117216
1.64827e-05
0.0147333
8.89055e-06
3.66982e-05
0.650208
0.0180072
3.14557e-06
2.13231e-15
0.00273281
0.133047
0.701114
0.0135688
4.26267e-11
3.50528e-14
0.0180072
2.10265e-07
0.000448633
2.01007e-05
1.55154e-05
0.000940998
0.177353
4.09958e-16
0.820369
3.20368e-10
2.90142e-05
8.69933e-15
0.00012936
0.00811084
0.000828305
0.659142
2.71277e-10
1.46515e-09
0.00133319
0.00394813
0.000376526
0.000531346
0.00334833
0.999998
4.83299e-11
0.0402944
0.000825969
0.00154934
6.82911e-09
7.50624e-06
4.07399e-06
1.29896e-07
0.592972
1.02608e-14
0.00545749
0.218731
1.0829e-16
3.21683e-05
1.11841e-05
0.998549
1.02054e-05
1.21566e-05
0.0099498
7.78226e-06
1.7647e-11
2.7632e-05
1.32948e-05
0.00101477
0.0170874
1
4.57723e-05
0.000100544
0.0177514
8.30089e-07
1.9086e-06
0.223536
6.21541e-14
2.00865e-05
1.52928e-15
0.0830879
0.00799501
0.66714
0.234399
8.21978e-09
0.982561
3.21424e-13
0.0180072
0.00243375
0.626621
0.20577
0.00371786
0.000211151
0.00510128
2.84126e-05
0.000897514
1.40892e-05
2.49434e-05
0.00277832
1.75203e-16
3.32364e-16
1.99297e-09
0.0413564
0.000123619
0.106325
2.24566e-05
9.26652e-14
0.000373523
4.89603e-07
0.000105512
0.495455
0.110761
7.15368e-05
2.31599e-06
3.97713e-08
1
0.0011295
1.147e-09
3.30392e-06
0.00164281
3.4565e-17
0.0457882
0.0665816
7.78226e-06
0.000684521
0.00516612
1.01914e-05
0.000267403
7.91042e-06
0.486124
0.00078449
0.997611
1.31296e-10
8.40321e-05
2.98524e-05
0.00918423
7.46589e-08
9.23651e-06
1.44319e-15
0.000797126
0.144037
2.20259e-11
9.43441e-09
0.00803461
8.94159e-06
3.65621e-08
7.51923e-06
0.00516999
2.70049e-07
3.03232e-09
0.00503117
0.0110505
3.34819e-17
5.58193e-11
4.5121e-09
3.32454e-06
2.53195e-07
0.915457
0.982078
0.000367972
7.33628e-07
3.44799e-16
4.32308e-05
0.104908
0.000226121
0.00633611
0.000407794
6.08263e-11
5.08742e-12
0.111291
3.33605e-13
1.74585e-06
0.0139766
0.00732626
0.000141895
0.000372982
0.0115745
2.65314e-06
0.0015235
6.71904e-06
0.000470453
0.00129593
9.54508e-13
0.000975994
0.000584192
0.00668366
0.0157903
0.00769033
3.54271e-17
3.77997e-06
0.000724195
0.0380136
0.000733083
8.64111e-15
0.00737746
7.14375e-17
0.999976
7.294e-11
2.89823e-12
5.77427e-05
0.000339303
1
4.32646e-08
0.000235109
0.00669896
0.00737898
1.26993e-07
1.50854e-05
6.23901e-07
0.000406993
1.38909e-15
0.00623514
4.40353e-08
3.1366e-07
1.62861e-05
7.05823e-06
6.21201e-14
0.00692662
2.54328e-05
4.40235e-08
1.94461e-07
3.14533e-06
2.8752e-08
1.98918e-05
0.000346251
0.00408207
0.000874078
2.73316e-17
3.73894e-08
1.03291e-06
0.00152625
5.63976e-05
6.2253e-07
4.36435e-17
9.64021e-06
1
2.26716e-06
2.31206e-07
9.90504e-08
0.00741964
5.92334e-08
1.44691e-05
0.0060619
1.40529e-08
6.99125e-11
1.76856e-07
1.4631e-08
4.09398e-05
1.75749e-17
0.603791
2.61384e-05
1.43435e-09
2.1356e-10
3.97371e-11
0.00598387
4.29133e-07
0.00795628
0.000665024
7.07575e-13
2.46764e-07
9.06366e-09
0.00318328
0.000904367
7.9477e-08
2.12893e-05
0.000616018
1.29298e-06
0.00376355
1.23304e-06
1.38242e-11
6.27388e-08
2.8958e-07
0.000130141
0.000205338
0.00268132
1.15861e-06
3.00141e-14
6.13995e-14
0.00374743
0.000165343
1
1.94729e-15
0.000210546
3.56898e-17
0.00156031
6.46185e-06
0.0016107
5.88385e-06
0.00742601
0.00378226
1.38033e-08
4.40235e-08
0.997302
0.00361971
1.31715e-08
3.33298e-06
6.89232e-07
4.98662e-15
1.05269e-07
2.29294e-16
1.13501e-05
1.34524e-10
2.29474e-07
1.41161e-05
4.9571e-08
0.000912349
5.33031e-05
8.12106e-08
0.006622
0.00458428
1.14405e-08
0.0025694
0.847151
3.9409e-07
0.107629
8.18051e-05
0.00297603
0.993471
2.19602e-17
6.80488e-09
4.03771e-09
9.78363e-07
5.10595e-09
4.31492e-06
0.000374
0.0039194
7.68494e-06
5.10461e-17
2.05398e-08
5.82546e-14
0.00190871
0.00471849
1.27971e-06
1.08722e-05
0.00400865
5.48856e-09
0.144037
0.00083365
0.00400865
1.28131e-07
-3.14461e-08
1.47799e-05
1.33026e-07
1.11524e-05
0.998402
0.392015
2.44166e-09
0.265743
1.88205e-09
1.50185e-17
1.23059e-07
1.525e-09
2.75877e-14
1.58023e-09
0.00207559
0.000222997
2.5608e-05
0.000516326
4.5524e-05
8.95919e-09
0.000548579
1.77972e-09
0.996561
5.33296e-05
6.90386e-11
1.17583e-10
0.999966
2.50703e-06
3.14307e-06
0.0072908
5.14591e-07
6.42602e-11
2.04761e-13
1.64298e-07
0.000100996
3.63743e-09
9.05351e-05
2.11649e-08
8.76415e-08
5.71291e-09
1
4.58808e-15
2.59013e-16
3.67113e-08
1.01714e-08
4.30891e-07
1.29439e-09
9.36485e-08
0.996618
1.32237e-08
4.89943e-14
2.89671e-09
7.75167e-09
1.43688e-07
4.49782e-08
2.00637e-11
0.620678
5.2126e-05
3.14806e-08
1.92793e-05
1.56555e-08
2.64122e-08
0.000612879
1.21049e-06
2.35015e-16
0.00249504
0.00031206
1.02965e-08
1.64556e-07
1.7259e-07
5.17178e-07
7.68816e-06
2.3891e-11
7.83868e-11
1.10279e-06
1.49684e-06
5.81736e-08
4.49779e-10
0.00400865
1.08813e-08
4.39098e-10
2.27762e-07
3.49786e-06
5.78902e-16
2.61938e-06
1.95253e-06
5.21226e-17
9.05166e-07
5.93365e-05
2.15676e-07
1.80626e-07
4.42104e-10
0.00201459
8.99039e-10
5.8015e-10
0.00039505
3.03815e-10
1.2115e-06
2.20821e-06
5.61813e-07
6.96807e-10
0.220443
1.05355e-09
4.82775e-10
3.08984e-18
3.31123e-06
0.00201081
3.78027e-05
9.05913e-11
0.000175871
5.68498e-12
4.07245e-06
1.06292e-06
1.05669e-07
8.39221e-05
2.43641e-11
5.9132e-10
-5.41993e-08
1.28953e-10
1.76395e-08
2.39983e-09
7.07579e-13
1.20927e-07
7.92458e-10
3.33392e-09
0.000321344
0.00112204
1.28233e-07
1.20206e-07
1.36672e-09
3.32364e-16
3.32727e-15
1.26761e-10
1.23715e-07
4.0585e-06
3.2345e-10
1.33927e-10
2.28577e-07
0.00219688
2.95514e-09
3.64818e-06
1.21065e-10
4.39359e-12
0.144037
4.59221e-09
8.67703e-11
7.59738e-13
4.33553e-17
0.000138014
1.2579e-08
2.73504e-06
1.15728e-10
1.2613e-10
-3.33197e-07
7.6865e-13
3.35209e-15
2.33131e-08
2.72584e-10
4.1524e-05
6.99596e-13
1.36674e-08
6.61827e-10
8.87264e-08
6.34247e-14
5.20824e-07
7.67454e-10
1.32261e-06
0.938566
1.54228e-09
5.28533e-16
-8.77832e-07
4.80142e-06
4.76711e-08
2.724e-09
9.33491e-08
2.47308e-10
0.996299
7.69184e-06
0.000451765
1.02819e-10
5.22766e-14
7.37476e-07
0.824249
2.50919e-09
3.18556e-06
3.2299e-18
1.16171e-09
3.79318e-08
4.67893e-11
4.0689e-10
2.62995e-09
9.57649e-09
0.000643124
5.04685e-08
0.999962
3.36533e-10
1.82202e-10
7.67051e-09
1.85809e-10
2.70514e-07
4.2915e-10
4.15051e-05
1.76639e-11
1.62898e-09
1.12107e-08
9.79385e-09
2.27183e-08
3.0827e-15
1.67405e-11
9.13046e-09
0.992934
7.31598e-06
1.0908e-07
1
-7.27042e-09
1.66622e-11
1.58979e-11
1.75016e-10
3.68213e-06
7.45553e-09
1.90948e-11
4.44096e-10
1.70221e-11
3.30708e-07
1
3.0285e-18
4.98199e-06
5.60548e-11
1.68628e-09
7.73307e-09
6.47209e-09
0.0621605
0.999683
1.40541e-08
3.86979e-08
1.81146e-11
0.999999
0.995399
0.00138481
4.91246e-07
1.09061e-10
0.999779
6.76561e-09
3.3101e-09
4.38403e-11
1.19628e-12
1.45305e-16
3.80976e-12
1.96101e-09
0.000488269
4.38797e-11
1.06895e-06
3.58461e-08
1.52621e-09
2.2933e-11
2.09069e-10
6.31543e-12
2.5062e-09
1.47773e-05
1.2198e-09
7.45309e-11
3.75175e-10
1.63777e-08
3.12258e-10
5.8409e-07
6.68119e-12
0.827186
1.66376e-05
7.20113e-12
3.61445e-08
5.00523e-12
6.43587e-10
2.31206e-07
4.06182e-14
0.999998
1
4.70118e-08
9.33047e-11
1.76457e-12
3.97087e-10
1
-1.50673e-09
2.03652e-12
5.11493e-11
3.98793e-12
7.96609e-12
2.9976e-10
1.87209e-09
5.90011e-15
8.21062e-11
1.04583e-11
1.90152e-17
1.80367e-08
-4.82456e-08
2.74469e-09
6.84948e-11
5.63146e-11
3.46068e-11
5.53304e-11
3.93453e-08
4.47409e-10
3.73608e-11
2.42291e-17
6.97937e-10
1.27326e-09
4.15356e-09
1.45299e-07
7.30645e-12
4.02831e-12
2.13351e-10
1
1.07983e-09
7.91988e-13
8.81223e-09
-3.46225e-09
1.8806e-06
9.03157e-11
4.24102e-06
8.15577e-10
2.73068e-10
1
6.62312e-09
3.86133e-11
3.56789e-18
9.53326e-12
5.53781e-12
2.1492e-11
5.51062e-10
3.8645e-11
1.72669e-12
1.11632e-06
-2.83004e-11
6.39252e-12
5.28145e-10
1.32824e-13
3.11569e-10
2.02771e-09
1.68508e-10
2.65111e-08
5.33725e-11
-6.68814e-13
9.16157e-11
3.30117e-06
2.32154e-06
2.41699e-10
1.6184e-11
1.52165e-12
1.93669e-10
-5.02918e-08
6.05252e-12
3.65739e-07
2.75048e-06
6.50114e-11
2.19965e-13
1.58501e-10
3.93571e-10
6.91343e-13
1.89212e-13
1
6.80659e-11
3.04208e-10
1.92536e-09
1.57115e-08
4.37031e-11
0.998163
1.02729e-10
2.42479e-11
-5.47037e-10
5.2701e-11
-6.28552e-10
8.8706e-14
1.88716e-12
2.43861e-10
1.9048e-18
0.855151
0.840284
1.18566e-12
1
1.06158e-13
1.84494e-12
2.21692e-09
4.70094e-11
3.51634e-10
7.4497e-12
2.4027e-11
7.52611e-09
0.332244
-1.7517e-08
1.24418e-05
1.23972e-05
-3.37665e-09
7.86611e-10
1
8.19853e-15
1.58836e-25
3.11357e-13
-1.36844e-10
5.37356e-13
4.63378e-15
5.20796e-13
4.3633e-10
1.7677e-12
1
1
5.20796e-13
1.15647e-10
1
3.39299e-12
2.04153e-11
0.999169
5.81155e-13
4.82433e-12
7.03148e-13
3.00309e-14
0.879369
8.32684e-13
8.3068e-11
0.220443
2.51225e-12
3.01036e-10
1
1.3971e-16
1.55298e-12
0
1.71564e-12
2.2276e-10
0
2.3638e-10
1.95102e-12
8.63043e-12
4.56287e-10
0.801086
6.71938e-08
1.1256e-12
1.19797e-11
0.999998
2.03302e-11
1.09965e-15
7.72439e-08
8.89204e-13
0.0351697
6.68086e-10
1
2.43213e-12
2.6018e-11
1.967e-12
1.47646e-08
3.50348e-12
5.1532e-12
4.6378e-15
1.90163e-12
3.9802e-10
4.36959e-17
4.88662e-15
5.21572e-12
6.32043e-17
9.80876e-14
2.55707e-16
1.0115e-12
1.40558e-12
3.83376e-12
8.21935e-10
2.34371e-12
-2.69425e-10
2.34063e-10
7.1887e-13
5.12962e-11
-1.64008e-09
4.06877e-19
2.35738e-10
4.50844e-15
2.37358e-12
1.71158e-12
1.61336e-12
-9.62788e-10
3.97683e-10
1.20751e-13
-3.79362e-10
5.41475e-12
1.5057e-10
4.0149e-10
0.642697
-3.3478e-10
3.1204e-17
-1.76603e-10
-9.60583e-12
2.35481e-09
1.56066e-11
1
1.83255e-11
1
6.84513e-12
4.22769e-17
2.0125e-11
1
1.00106e-13
1.09891e-13
1.90339e-18
1.47648e-12
1
-1.86059e-10
5.42822e-13
1
4.70334e-14
1.62723e-11
0.507569
1.22355e-09
2.32409e-12
0
1
-1.4811e-31
-8.24543e-17
1.39979e-14
8.70245e-11
4.0605e-15
3.10983e-25
-8.35525e-10
9.96243e-15
-1.22367e-10
-3.96312e-13
1.56046e-14
1.32841e-15
8.54155e-13
2.93257e-10
-8.00021e-10
1.06994e-15
1.33316e-11
1
7.04225e-13
5.67299e-13
1
5.29307e-13
9.13581e-11
5.20796e-13
5.5202e-11
4.62379e-13
5.50976e-13
3.33841e-11
1.59229e-14
6.42152e-13
-4.16654e-11
-7.48055e-16
9.28073e-17
7.67916e-13
1.19283e-12
1.18467e-11
0.781486
-2.32142e-11
1.1141e-12
2.71578e-13
-2.5688e-10
2.57171e-13
0.999915
0.653224
0.570247
2.12292e-12
2.71547e-13
2.20119e-12
4.59526e-11
1.33616e-12
-3.3745e-10
1
1.02124e-13
9.21396e-12
1.73718e-11
2.81437e-13
5.33669e-19
1.56906e-14
1
1.99669e-12
2.00856e-12
4.87356e-11
3.08014e-13
-2.29832e-16
-6.91367e-11
-4.90908e-12
-7.07833e-14
1.35903e-11
1.56126e-12
9.12274e-13
7.14583e-13
3.12863e-11
4.1981e-13
2.44021e-11
9.28702e-14
-4.2813e-11
-2.18845e-13
1
9.80876e-14
9.80876e-14
8.09724e-15
9.06966e-15
2.29748e-16
1.17631e-11
-2.39437e-12
4.92441e-12
-2.81669e-11
-3.01836e-15
1.61385e-14
-8.61428e-12
1.40218e-12
6.33482e-14
-2.10445e-11
-7.87504e-15
1.34654e-12
1.74801e-22
-7.64238e-13
1.63085e-12
9.5036e-17
0.999984
0.999991
1
-1.54705e-13
2.29882e-12
-8.02258e-12
1.67682e-13
2.09243e-14
3.99182e-12
1
2.90631e-16
4.27211e-19
-4.21361e-12
1.49974e-11
4.1362e-14
9.56403e-16
-1.26064e-12
-3.12676e-13
2.07155e-13
8.57509e-16
4.06877e-19
4.06877e-19
1.61977e-16
7.79611e-16
3.43293e-12
-1.82721e-17
2.06188e-13
-1.83816e-12
7.0133e-14
1.13979e-13
4.67915e-12
7.11172e-13
1
-1.38894e-11
2.30555e-13
5.55075e-18
5.16277e-13
1.66576e-12
4.98511e-15
7.04455e-12
-1.37407e-13
4.60685e-15
1.02124e-13
5.04867e-18
8.09724e-15
5.00078e-14
1.0811e-11
0
2.72276e-13
-1.47413e-16
1.37668e-16
5.96894e-13
1.10122e-12
-5.16039e-13
1
5.89302e-14
7.81974e-13
1.37305e-14
0
8.25559e-15
-1.03082e-11
1.42973e-21
2.68466e-21
9.29154e-12
1
8.53256e-13
1.17005e-12
-1.36416e-13
-1.52391e-12
-2.35947e-13
9.83132e-13
5.07546e-13
-2.88658e-13
1.26453e-15
3.99659e-18
-2.51865e-12
-1.24199e-16
-6.01387e-15
1
1
2.9997e-15
-8.60916e-12
-1.57671e-14
2.76154e-16
0.034341
7.18065e-31
1.01492e-14
6.40222e-17
1.3741e-13
-8.70426e-15
3.16619e-12
2.29286e-14
5.00296e-14
4.19201e-16
-3.98161e-17
0
3.30206e-16
-5.09683e-18
-4.58453e-17
7.54974e-15
-3.31409e-16
9.57031e-15
-1.47814e-14
-7.98882e-18
1.2935e-16
-6.88248e-17
2.78631e-18
1.25503e-17
1
1
1.00894e-14
-3.13997e-18
4.02013e-15
3.16389e-15
4.71961e-14
3.15051e-16
9.31048e-14
1.01216e-12
2.50504e-14
-1.49842e-15
7.93978e-16
3.94247e-13
5.5888e-17
-9.67694e-17
3.39474e-19
5.2942e-18
3.46412e-14
-3.39956e-15
7.7502e-17
1.60994e-15
2.85675e-14
2.96165e-14
0
1.68324e-18
1.44217e-17
9.33318e-18
-8.09454e-19
2.7305e-13
-5.77973e-15
-2.93062e-19
-3.02254e-19
7.05388e-16
2.64914e-17
1.76621e-16
2.18889e-14
2.96237e-17
2.69408e-15
3.1972e-18
-1.40495e-20
4.41939e-19
-1.80868e-19
3.74989e-19
2.38366e-17
1.30487e-16
3.68026e-18
2.14892e-14
-3.51427e-20
1.51058e-14
-7.86659e-20
-2.68e-19
2.42128e-16
-5.12667e-19
-5.91287e-17
-1.32845e-20
-9.24942e-23
-9.36e-22
-5.88392e-20
2.10574e-17
5.38565e-19
-1.80228e-18
4.36987e-14
-8.58819e-20
0
1.34016e-22
3.35284e-21
-6.35047e-19
6.10227e-19
4.76021e-27
1.68502e-28
7.83466e-30
1.45684e-20
3.8618e-18
1
1
8.75562e-44
1
8.75604e-44
1
2.54138e-18
3.32632e-19
2.54733e-14
3.05313e-18
1.0303e-17
2.50569e-15
9.87436e-20
2.49559e-19
1.01562e-14
2.80849e-15
5.90564e-22
5.16275e-23
6.82695e-16
1.91111e-25
3.21909e-24
7.57127e-21
6.60254e-20
6.60406e-30
5.8686e-25
2.0433e-23
1.59146e-22
2.41203e-21
4.3951e-20
7.78269e-21
5.46248e-19
9.99201e-20
4.89442e-10
7.05985e-17
8.3663e-15
7.56037e-16
3.0331e-18
1.99569e-19
1
0.577545
0.99997
1.74801e-22
1.01407e-18
0.588825
-1.59179e-12
4.75295e-19
8.20685e-21
0.999972
8.95294e-10
0.999995
0.9998
1.74801e-22
0.999997
0.070995
1
0.999997
0.675029
1
0.387232
0.0658419
0.999997
8.35932e-14
7.87586e-12
1
1
1
1
1
1
0.999363
0.999975
1
0.969827
0.969617
0.969617
0.999999
0.699033
0.00220323
0.712433
6.19487e-10
6.19487e-10
1
1
1
0.58389
2.33847e-10
0.438395
1
0.999954
0.879656
1
1
1
1
1
1
0.999995
0.999938
0.99996
0.531038
0.923194
2.54477e-10
1
0.969718
1.18711e-09
0.959127
0.99985
0.939516
0.953882
0.957887
0.999599
0.00830319
0.969617
0.999909
0.713007
0.483578
0.696164
1.66958e-11
0.78748
0.939472
2.65373e-15
0.426012
2.98493e-11
0.583262
0.845963
0.879899
0.167376
0.977604
2.24127e-11
1
0.999949
1
0.84429
5.77546e-11
1
1.84422e-11
0.795699
1
0.803135
1.85002e-11
0.699692
0.18401
0.224276
0.923492
0.923775
1
0.53419
1
1
2.31799e-11
)
;

boundaryField
{
    patch0
    {
        type            zeroGradient;
    }
}


// ************************************************************************* //
