/*--------------------------------*- C++ -*----------------------------------*\
  =========                 |
  \\      /  F ield         | OpenFOAM: The Open Source CFD Toolbox
   \\    /   O peration     | Website:  https://openfoam.org
    \\  /    A nd           | Version:  8
     \\/     M anipulation  |
\*---------------------------------------------------------------------------*/
FoamFile
{
    version     2.0;
    format      ascii;
    class       volScalarField;
    location    "0.5";
    object      epsilon;
}
// * * * * * * * * * * * * * * * * * * * * * * * * * * * * * * * * * * * * * //

dimensions      [0 2 -3 0 0 0 0];

internalField   nonuniform List<scalar> 
1924
(
0.0405083
0.0444761
0.0636305
0.0674707
0.0481947
0.0696251
0.070648
0.0720004
0.0720729
0.0593337
0.0732247
0.0730006
0.0240222
0.0742508
0.0740474
0.0731604
0.0271102
0.0739996
0.0354419
0.0746371
0.0191061
0.0574363
0.0304745
0.07424
0.0583449
0.0683723
0.0717334
0.0491608
0.0547606
0.0542627
0.0309623
0.0603046
0.0422227
0.0266893
0.0512711
0.0329373
0.0631956
0.0556651
0.0496489
0.0298986
0.0659391
0.0198042
0.0657962
0.0275985
0.0648326
0.0559565
0.0354515
0.0673536
0.0158292
0.0152969
0.039738
0.024674
0.0557588
0.0447506
0.0543251
0.0569917
0.0349728
0.0649166
0.057043
0.0772251
0.0295631
0.0734369
0.0282208
0.0445583
0.0492901
0.0669227
0.0745985
0.0362534
0.0576529
0.0343832
0.0196433
0.0728588
0.0455966
0.0589587
0.0585789
0.0372745
0.0687284
0.0616458
0.0677232
0.0326512
0.069536
0.0746561
0.0618499
0.0220655
0.0395411
0.0390846
0.0571802
0.0748504
0.0140089
0.0215458
0.0752667
0.0733439
0.058947
0.0615818
0.027263
0.0445113
0.0689196
0.0703744
0.0779403
0.0232658
0.06545
0.0256349
0.0784191
0.0763522
0.0628731
0.065015
0.0671629
0.0594357
0.0753948
0.0629955
0.0696836
0.0625387
0.0525116
0.0607568
0.0676685
0.0188974
0.0659934
0.0721486
0.0497706
0.0685021
0.032491
0.0516103
0.0165498
0.0192428
0.0735795
0.0657064
0.0426751
0.0612619
0.0644032
0.0872588
0.0696907
0.0674816
0.327617
0.0628818
0.0281983
0.0665467
0.0603998
0.0631568
0.0744774
0.0534791
0.0617515
0.0730873
0.309943
0.302212
0.0697008
0.0426731
0.0613605
0.0238322
0.0730319
0.0498591
0.0582829
0.104139
0.0382808
0.0705618
0.070466
0.0664362
0.0511416
0.0606383
0.0704233
0.444875
0.0599142
0.0467885
0.070801
0.0545497
0.0491988
0.0676752
0.0700472
0.0654693
0.0682567
0.0673891
0.0485043
0.0724418
0.0640629
0.0758853
0.062745
0.0518786
0.0563844
0.0502019
0.0336919
0.072982
0.065278
0.0721869
0.0643474
0.070344
0.0158022
0.0415572
0.0428998
0.0705814
0.0690237
0.0626058
0.0556547
0.0726219
0.0702558
0.0731088
0.0730605
0.110514
0.0742877
0.0538866
0.0588242
0.0505029
0.116432
0.0437311
0.0701164
0.0740344
0.0497888
0.0669135
0.0747179
0.040208
0.0296411
0.25307
0.0581267
0.0682828
0.0749086
0.0733102
0.0709176
0.0641473
0.0704579
0.0566238
0.0746822
0.059668
0.0621211
0.0626577
0.0711967
0.0752086
0.0739408
0.0741529
0.0710064
0.0661748
0.0754802
0.0529097
0.25792
0.0774033
0.0609475
0.0803782
0.0769419
0.429628
0.0743794
0.0759259
0.0727081
0.117617
0.0718323
0.0634297
0.0739334
0.0425403
0.354657
0.0304596
0.0751687
0.0665492
0.0638249
0.0645573
0.0509839
0.0725837
0.0758248
0.0704615
0.0687045
0.074759
0.0666182
0.0611735
0.0627301
0.0757762
0.0678178
0.0737313
0.0743844
0.0650596
0.0606354
0.0557004
0.0197102
0.0618641
0.0538958
0.13305
0.049855
0.0570133
0.0514332
0.0659636
0.0776679
0.0691665
0.0749686
0.076761
0.0710902
0.057243
0.0951698
0.176076
0.076287
0.0772565
0.0314595
0.0619444
0.0708195
0.0841985
0.0765472
0.064482
0.0747963
0.0509078
0.0784138
0.0738928
0.015617
0.0507236
0.074801
0.0394934
0.0598818
0.0742233
0.151759
0.0727731
0.0732717
0.0681611
0.0757778
0.0700064
0.0206614
0.072763
0.0624353
0.0658956
0.0357436
0.0495932
0.0776018
0.0550905
0.0695696
0.022125
0.0678804
0.0763026
0.075716
0.0718943
0.0530116
0.0522509
0.0733896
0.0564226
0.072494
0.0670683
0.0682924
0.0667234
0.0675679
0.0717348
0.0592293
0.0755783
0.0542364
0.0754735
0.0565912
0.0783181
0.0775754
0.0764077
0.0781059
0.0746578
0.0655787
0.0597867
0.0575441
0.0417756
0.074247
0.0721322
0.25894
0.0748193
0.0523706
0.0694992
0.0636384
0.326682
0.174744
0.0731498
0.0325117
0.0627419
0.0163414
0.0765854
0.0590773
0.0388386
0.0787651
0.0737
0.0727357
0.0776606
0.0623255
0.0751032
0.0565285
0.0496834
0.0783647
0.077196
0.0720013
0.0721457
0.0629416
0.0723314
0.0705449
0.0564774
0.0737716
0.0736977
0.0597718
0.0741614
0.0728429
0.0607792
0.068984
0.0751754
0.0558896
0.071512
0.0546273
0.0773757
0.0686575
0.0761416
0.215622
0.0549624
0.0724692
0.0760685
0.0774751
0.249169
0.0652552
0.0587146
0.0715295
0.07158
0.0462302
0.056947
0.0389327
0.0568795
0.155703
0.0766929
0.0704485
0.0759522
0.060121
0.0640481
0.0788383
0.0543185
0.0762977
0.0763379
0.0778507
0.0669962
0.0678859
0.0729378
0.0435731
0.0694541
0.0725963
0.0518204
0.0695492
0.035018
0.06183
0.0717704
0.0692753
0.047331
0.0568849
0.0721551
0.0764111
0.0665737
0.0741169
0.0527545
0.0778075
0.0703836
0.0714355
0.0207278
0.0771215
0.0607957
0.0577257
0.0673509
0.0753664
0.0444498
0.0749581
0.341732
0.0782838
0.0547468
0.0724609
0.0763082
0.0730446
0.0561819
0.077396
0.0722797
0.0661944
0.0755126
0.0705779
0.0732788
0.0526999
0.0728981
0.0636631
0.0589128
0.0235858
0.0510022
0.0413593
0.0762533
0.0753597
0.0779
0.0769584
0.066513
0.0638713
0.054842
0.0498811
0.070049
0.0504743
0.0617624
0.0424263
0.0760141
0.074621
0.0716075
0.0784865
0.077475
0.0738703
0.0752235
0.0580986
0.0629574
0.0689581
0.0720919
0.0720821
0.0701328
0.0216682
0.0712154
0.0544416
0.0701804
0.071432
0.0685833
0.0738335
0.0746088
0.068037
0.0563828
0.0711472
0.0730656
0.0547212
0.0611416
0.0321811
0.0667044
0.0724464
0.0659666
0.0568995
0.0702703
0.057579
0.0674802
0.0738674
0.0775795
0.0745582
0.0742988
0.0602083
0.0748368
0.0771126
0.0720253
0.0541502
0.0726587
0.0647374
0.0699892
0.0785163
0.0773531
0.0500179
0.0324525
0.0651338
0.0765001
0.0531174
0.0757436
0.0562862
0.0392017
0.0390752
0.0733292
0.0773686
0.0524005
0.025887
0.0633571
0.058689
0.0547158
0.0370624
0.0553458
0.0688383
0.0694698
0.0466202
0.0408669
0.0737535
0.0720314
0.069052
0.0709132
0.0716295
0.0551792
0.0675811
0.0423793
0.0347457
0.0449247
0.0542657
0.042065
0.0625194
0.0551389
0.0511281
0.0713175
0.0562331
0.0432816
0.0629236
0.0707653
0.0475534
0.0580583
0.0681081
0.0699646
0.0669821
0.0709759
0.0499641
0.0713837
0.0360366
0.0350983
0.0696894
0.0469826
0.0606403
0.0731682
0.0768033
0.0706343
0.051542
0.0368457
0.0708309
0.0545483
0.065725
0.0578579
0.0652799
0.0557894
0.103291
0.0498726
0.0432765
0.0695603
0.0711134
0.0681136
0.073105
0.0553113
0.0391987
0.0710901
0.07637
0.0382675
0.0565353
0.075083
0.0767318
0.0584826
0.0448085
0.0577614
0.0645825
0.0726579
0.0392104
0.0698624
0.0598558
0.0735144
0.0786813
0.041913
0.049652
0.0466436
0.0685981
0.0641573
0.0713928
0.0628628
0.0764554
0.0476214
0.0375781
0.0732529
0.0784391
0.0431181
0.0720989
0.06814
0.0676356
0.0539342
0.0566009
0.0441222
0.0679733
0.0476771
0.0681261
0.068215
0.0686635
0.0686968
0.0583173
0.0667571
0.0672462
0.0722485
0.0619346
0.0717669
0.0682495
0.0543759
0.0578569
0.0687034
0.0577546
0.0783987
0.0385151
0.0683715
0.0580951
0.0561006
0.0662979
0.0461758
0.0472636
0.0412989
0.0477022
0.0663219
0.068467
0.0383108
0.0646526
0.072546
0.05784
0.0579149
0.0600725
0.0597488
0.0242761
0.0706233
0.072239
0.0651537
0.0761851
0.0717754
0.0482222
0.0412486
0.0689201
0.0689791
0.0717541
0.0706047
0.0639592
0.0759864
0.0688696
0.0445776
0.0679126
0.0416426
0.0549649
0.0747194
0.0714868
0.0672268
0.0595204
0.0705457
0.0437755
0.049965
0.0594725
0.0617281
0.0611127
0.0573771
0.0674506
0.0328985
0.0529562
0.0674956
0.0670223
0.0670921
0.0678161
0.0580568
0.0593582
0.0467067
0.0671379
0.0454721
0.065859
0.0780981
0.0670661
0.059664
0.0706775
0.0268812
0.0475726
0.0721104
0.0573273
0.0420443
0.0718574
0.0425949
0.0739511
0.04741
0.0405596
0.0663564
0.0671489
0.0472937
0.0493925
0.0610124
0.0706586
0.0653641
0.0690824
0.0670714
0.0716594
0.0585007
0.0526844
0.0675399
0.0588583
0.0662309
0.0723618
0.127762
0.0587376
0.0436072
0.0593375
0.0656304
0.0634132
0.0673495
0.0758971
0.0411434
0.0463569
0.0786145
0.039921
0.0517659
0.0458774
0.0717283
0.0402074
0.0680644
0.0712913
0.0621967
0.0625794
0.04636
0.0661373
0.0596174
0.0463585
0.066618
0.0719337
0.0664531
0.0548415
0.0664076
0.0355328
0.066891
0.0594044
0.0659031
0.0467127
0.0665694
0.0587515
0.0505842
0.0749235
0.054301
0.075029
0.0396195
0.0719349
0.0671476
0.0681943
0.0535634
0.0486708
0.0611497
0.068204
0.0664933
0.0606979
0.0603161
0.0669947
0.0406108
0.067176
0.0613751
0.025478
0.0437575
0.0645782
0.036098
0.051889
0.0718485
0.037329
0.0719494
0.0670664
0.0598241
0.0396311
0.0658108
0.0547775
0.0932895
0.0614059
0.0472384
0.070543
0.0511704
0.0639869
0.0509167
0.0601662
0.0771851
0.0701407
0.0520084
0.0687511
0.0654995
0.0605784
0.0694981
0.0672901
0.0494486
0.0718856
0.0535355
0.061422
0.0651607
0.0618277
0.0648812
0.0477618
0.0701166
0.062716
0.138577
0.0723563
0.118107
0.0661362
0.0648949
0.0185429
0.0611962
0.066471
0.0615135
0.071134
0.0617588
0.0748526
0.0683992
0.0508691
0.0488425
0.0719008
0.066897
0.0606565
0.0614559
0.0543897
0.0388681
0.0697094
0.0702536
0.0667221
0.0369255
0.0600064
0.0672616
0.0548972
0.0644463
0.0523216
0.0525528
0.0613463
0.0620944
0.0595744
0.0741627
0.0617425
0.0366037
0.0505049
0.0591977
0.041958
0.0671784
0.0284817
0.0622649
0.07085
0.036491
0.0672547
0.0628374
0.0672962
0.0732113
0.0686619
0.0690931
0.06232
0.055101
0.0813541
0.0695321
0.0656392
0.0658754
0.0647357
0.0715886
0.060364
0.0718796
0.0536875
0.0362577
0.0623544
0.0475724
0.0641211
0.0623864
0.0674129
0.0550777
0.0650388
0.0675005
0.0645588
0.0357715
0.0647757
0.272061
0.0511602
0.0680453
0.0560857
0.0640007
0.0623948
0.0389193
0.0364374
0.0718282
0.0631435
0.0478708
0.0625564
0.0554022
0.0523097
0.077559
0.07466
0.066283
0.0626094
0.0714026
0.0635847
0.0603697
0.0674419
0.0339423
0.0705491
0.0612509
0.0669337
0.0683178
0.0399863
0.271309
0.0617174
0.0426993
0.121531
0.0673675
0.0631205
0.0675101
0.0557036
0.0718868
0.0596227
0.0634848
0.269276
0.062064
0.0698678
0.15051
0.0598395
0.0519727
0.0572397
0.0711364
0.0533114
0.0562876
0.0627355
0.0756231
0.0551088
0.0676903
0.0694584
0.0641131
0.064929
0.0560922
0.0415898
0.0632677
0.0356754
0.0651657
0.0711929
0.0257204
0.0670889
0.0657066
0.0694963
0.0493471
0.0717691
0.065923
0.058804
0.0637016
0.0648775
0.0689597
0.0638859
0.0390715
0.0317
0.0601445
0.0544221
0.0679542
0.0538787
0.0641707
0.0611975
0.0363681
0.0590834
0.0700849
0.0704414
0.0581489
0.0649675
0.057455
0.0592946
0.0709998
0.0621599
0.0371696
0.0715888
0.0729526
0.0632281
0.0411034
0.064785
0.0582501
0.07156
0.06744
0.0635249
0.0617248
0.0674843
0.0670392
0.0629648
0.0651367
0.0644322
0.06806
0.0645498
0.0895077
0.0378272
0.0432684
0.0672827
0.0636027
0.0683213
0.0649671
0.0504089
0.0437442
0.0584339
0.0613675
0.0697532
0.0465353
0.0491808
0.0641039
0.0736353
0.0538009
0.0648911
0.0575171
0.0715054
0.0751285
0.0692586
0.0714067
0.0660998
0.0567089
0.0661408
0.066182
0.0675156
0.0645854
0.0663964
0.0586087
0.0655275
0.0683829
0.0755805
0.0660173
0.0665323
0.0686378
0.0562345
0.0666944
0.0570543
0.0576711
0.0280543
0.0593229
0.0395926
0.0703433
0.0661198
0.0550038
0.0546512
0.0716176
0.0552329
0.0651611
0.0590761
0.066878
0.0675514
0.10835
0.0713578
0.0603171
0.0658168
0.072047
0.0666337
0.0613366
0.0252517
0.0552174
0.054962
0.0447178
0.0672073
0.0714601
0.0667795
0.06213
0.0709249
0.0719996
0.0762053
0.0660799
0.0668651
0.0702631
0.0687648
0.0678681
0.0574355
0.0554475
0.0627022
0.0548051
0.0726281
0.0668123
0.0266159
0.0535838
0.0666834
0.0700802
0.0666397
0.0577671
0.0694751
0.0875998
0.112832
0.0759653
0.0583667
0.0657104
0.0615864
0.0570329
0.0666911
0.0667457
0.054741
0.0713539
0.0618702
0.0603178
0.0508563
0.0665537
0.0585374
0.0649076
0.0412617
0.0710926
0.0686957
0.070759
0.0598672
0.0539248
0.066407
0.0603315
0.0563407
0.0460722
0.0609655
0.0711477
0.130821
0.0443708
0.0518077
0.0630257
0.0689604
0.0662539
0.0618012
0.0844276
0.0383502
0.0668873
0.0552183
0.0706904
0.07064
0.0680321
0.0630137
0.0582919
0.0677941
0.054024
0.0659044
0.0666556
0.138156
0.0711382
0.0659126
0.053494
0.0521769
0.0661055
0.0460458
0.0623615
0.0629874
0.0526121
0.0523444
0.0527923
0.0756507
0.0703062
0.0653809
0.0316838
0.0645841
0.0697286
0.0689561
0.0505414
0.0706334
0.0535555
0.0652195
0.0469145
0.0951149
0.063038
0.0667986
0.0666641
0.0746375
0.0486203
0.0666223
0.028732
0.0776233
0.0698749
0.0396867
0.0664002
0.0502105
0.049116
0.0680649
0.0687582
0.0657441
0.0452831
0.0667176
0.0515725
0.0658262
0.0432512
0.0426202
0.0697425
0.0526199
0.0647539
0.0550871
0.0704575
0.0470705
0.0472218
0.0692759
0.0624569
0.0585684
0.0483178
0.0424744
0.0662371
0.0655094
0.0532646
0.0538317
0.0687376
0.055144
0.0479316
0.0276639
0.0784865
0.0587211
0.0624742
0.0663192
0.0598608
0.0694031
0.0691795
0.0689156
0.0439929
0.0670078
0.0437061
0.0646933
0.068995
0.0653797
0.0426294
0.0407332
0.0690003
0.0534196
0.0641866
0.0454894
0.19419
0.0653349
0.0472705
0.0690478
0.0489239
0.0671651
0.0809082
0.0553753
0.0368883
0.0920814
0.0645234
0.0681851
0.0503485
0.157959
0.0383955
0.0619415
0.0450301
0.0431509
0.0514372
0.0421193
0.0596014
0.0657982
0.054645
0.0486358
0.041462
0.0462536
0.0647305
0.0688924
0.0655981
0.0444314
0.0492724
0.0350383
0.0660766
0.0650752
0.082205
0.068244
0.0819002
0.0655621
0.0677495
0.0639159
0.0644492
0.0648832
0.0520831
0.0672255
0.0385969
0.0657183
0.0441801
0.0647756
0.0674912
0.0644725
0.0531058
0.123579
0.0656575
0.0612024
0.037085
0.0657618
0.0640314
0.0438678
0.0661489
0.123548
0.040939
0.0635802
0.0669411
0.126328
0.0386807
0.0606997
0.0565774
0.0662452
0.0390142
0.064455
0.0643124
0.092955
0.0639551
0.0629156
0.0635878
0.0520236
0.0629433
0.13649
0.0640972
0.056311
0.0391349
0.064824
0.0657611
0.0408741
0.0632008
0.0644179
0.050731
0.053958
0.0509243
0.0662986
0.109168
0.121362
0.0487516
0.0424076
0.0551732
0.161182
0.0623134
0.0624786
0.104969
0.0649297
0.0521094
0.0629181
0.0608776
0.117435
0.124595
0.0542898
0.0614094
0.0849666
0.0513828
0.0497787
0.0389742
0.0404924
0.0529502
0.0369564
0.0627822
0.0652606
0.0636475
0.0617892
0.0650789
0.0627452
0.118626
0.0614456
0.143669
0.150041
0.0662895
0.0608869
0.0343704
0.131273
0.0637007
0.0367609
0.0625871
0.0827244
0.0355371
0.0864651
0.0633718
0.0734589
0.0407482
0.0291295
0.0912929
0.0620025
0.0862234
0.0613616
0.0592769
0.0618157
0.0962012
0.0532233
0.100643
0.053468
0.0616183
0.104159
0.0510929
0.0239303
0.0518823
0.0538234
0.140223
0.139293
0.106267
0.0630446
0.0442582
0.0635327
0.0630371
0.054436
0.058809
0.0522061
0.061813
0.0515398
0.060484
0.081173
0.0537734
0.0267302
0.0605391
0.0519077
0.0616143
0.044695
0.0480148
0.1504
0.0331589
0.106513
0.0608427
0.057295
0.0609164
0.0504606
0.0601402
0.0335454
0.0522164
0.0620506
0.147011
0.051657
0.0583649
0.0305149
0.108497
0.0459259
0.0508582
0.0498356
0.0579354
0.060024
0.0810611
0.0593423
0.0596873
0.0783418
0.0591748
0.0620157
0.080333
0.0527979
0.0538193
0.0617778
0.10548
0.050951
0.0600961
0.059652
0.0754166
0.0582348
0.0494962
0.0523217
0.060355
0.0906084
0.0592429
0.0438557
0.0601769
0.0626572
0.0586513
0.0487526
0.0344459
0.0618962
0.0284034
0.0627119
0.0290641
0.0588171
0.133844
0.112073
0.104548
0.153408
0.0566233
0.0800081
0.0551743
0.0511536
0.0281287
0.0666914
0.134827
0.0246324
0.0578637
0.0534537
0.057026
0.0334514
0.0491632
0.0491937
0.0710618
0.057739
0.0330932
0.055133
0.0555511
0.0497917
0.0555889
0.0562585
0.0349558
0.0452046
0.104045
0.058294
0.0555126
0.0438663
0.0553526
0.0257037
0.149382
0.0468615
0.0536533
0.15489
0.0560574
0.163757
0.0556721
0.0547061
0.174045
0.0574545
0.102068
0.184417
0.0515368
0.0418802
0.0649683
0.193968
0.201665
0.0554415
0.0527941
0.0522082
0.0543322
0.0483134
0.0512499
0.0458998
0.052599
0.118091
0.141345
0.206413
0.0530579
0.0500701
0.053961
0.106847
0.0507996
0.0704317
0.110798
0.0504014
0.0512333
0.109271
0.0541592
0.038566
0.0237002
0.20733
0.10333
0.0558885
0.120614
0.0405722
0.0468417
0.0476384
0.045982
0.0503592
0.146942
0.139583
0.0487054
0.0539517
0.131447
0.0578195
0.101892
0.0476568
0.0474061
0.114942
0.195675
0.202007
0.0998756
0.0384622
0.042288
0.057877
0.0480885
0.0514313
0.0578046
0.038223
0.0485597
0.0584228
0.0458634
0.120548
0.054055
0.0392667
0.0528811
0.0446919
0.0503841
0.204932
0.0584775
0.0524205
0.0764312
0.0479554
0.0458204
0.0454099
0.04306
0.0439023
0.19552
0.0460728
0.0928129
0.0605265
0.0841392
0.0437722
0.0534913
0.0507094
0.0436335
0.0499373
0.0409745
0.0984669
0.0485505
0.142278
0.154131
0.0433602
0.106774
0.0489713
0.0840993
0.0421721
0.0539974
0.0456874
0.0503756
0.0476904
0.0435597
0.0210239
0.0540034
0.201336
0.0873022
0.0412949
0.202061
0.107744
0.0491212
0.0403236
0.0429753
0.214532
0.0391183
0.190622
0.0978685
0.0534421
0.0537008
0.212064
0.0814334
0.0435658
0.208044
0.0578761
0.0371954
0.0651767
0.0376288
0.0426681
0.0385363
0.0854599
0.0424544
0.0497114
0.0615555
0.051629
0.0489808
0.0197773
0.0476357
0.0450937
0.0421461
0.0462953
0.0368679
0.0449411
0.193425
0.0418432
0.0465885
0.0387009
0.0458242
0.0354582
0.0352758
0.056431
0.0691137
0.0325562
0.0499914
0.0360612
0.0285911
0.0454445
0.0893334
0.186029
0.0425642
0.0401576
0.0849274
0.044768
0.0987661
0.19591
0.0325853
0.032111
0.0345979
0.0385709
0.151877
0.145903
0.0449086
0.0777859
0.0923343
0.0790216
0.0267749
0.029878
0.0310805
0.0388522
0.0343576
0.038714
0.0510144
0.046276
0.0271757
0.03759
0.0922333
0.181789
0.0422007
0.0414492
0.0464271
0.03716
0.0382485
0.0321554
0.04094
0.0716439
0.137369
0.0304156
0.0853336
0.0419004
0.15754
0.0316688
0.166621
0.0961846
0.182061
0.0354776
0.154978
0.0383608
0.0731353
0.0271547
0.0393055
0.145466
0.0615065
0.0242868
0.0886326
0.0812753
0.164326
0.0367737
0.0939533
0.0334981
0.130387
0.0204497
0.0348414
0.0271457
0.125999
0.151015
0.0848877
0.0769361
0.0944305
0.0668794
0.173089
0.109808
0.0271998
0.0304504
0.0320201
0.0340963
0.110274
0.0820206
0.0479746
0.0196946
0.0276556
0.0248233
0.0299461
0.0359456
0.0314056
0.0263136
0.0867301
0.0572692
0.0232102
0.155127
0.0492882
0.0722495
0.042553
0.0211381
0.023773
0.0332386
0.0185807
0.0246983
0.019201
0.0258659
0.0506752
0.130084
0.0640952
0.177897
0.072759
0.147962
0.177816
0.0563613
0.112809
0.188219
0.0944309
0.0615419
0.101681
0.167365
0.08744
0.055071
0.117167
0.0689614
0.0487674
0.0385173
0.0531996
0.0418195
0.081462
0.0972984
0.0496878
0.13391
0.0204171
0.065852
0.0266046
0.0326484
0.0295129
0.0533998
0.0756212
0.0495842
0.031139
0.0442218
0.0431995
0.0225081
0.0521182
0.0359714
0.0225863
0.0420429
0.0571091
0.0671184
0.0476091
0.168903
0.0296576
0.179657
0.0531298
0.0163956
0.0520787
0.0526787
0.210527
0.025732
0.0471701
0.0522955
0.047826
0.0741795
0.179346
0.118361
0.206803
0.110031
0.154841
0.133356
0.0495301
0.106417
0.0448421
0.0809823
0.0450542
0.0626316
0.120795
0.0448279
0.0523311
0.0837113
0.210192
0.257151
0.0475639
0.0507609
0.162356
0.0278813
0.0666621
0.0208435
0.0164452
0.053382
0.0791236
0.084638
0.0606107
0.0853186
0.0761078
0.0593924
0.0664348
0.0671266
0.0613667
0.0467886
0.0468627
0.0149553
0.0675268
0.0984688
0.0456771
0.163965
0.0140229
0.0178263
0.0488975
0.0450396
0.0156942
0.0185786
0.030502
0.0372183
0.0166389
0.0193742
0.0182651
0.0471484
0.0710939
0.0194314
0.0471988
0.0567849
0.0208397
0.0729588
0.0190777
0.0751854
0.0978361
0.0306108
0.0462292
0.0740765
0.016063
0.0144686
0.0809264
0.0485811
0.0713396
0.0159752
0.0718185
0.0474385
0.0498277
0.0497471
0.072304
0.0246717
0.0509501
0.0262947
0.0188491
0.0182496
0.133049
0.0490437
0.0605413
0.126333
0.0733838
)
;

boundaryField
{
    patch0
    {
        type            epsilonWallFunction;
        value           nonuniform List<scalar> 
4010
(
0.0405083
0.0405083
0.0444761
0.0444761
0.0636305
0.0636305
0.0674707
0.0674707
0.0481947
0.0481947
0.0696251
0.0696251
0.070648
0.070648
0.0720004
0.0720004
0.0720729
0.0720729
0.0593337
0.0593337
0.0732247
0.0732247
0.0730006
0.0730006
0.0240222
0.0240222
0.0742508
0.0742508
0.0740474
0.0740474
0.0731604
0.0731604
0.0271102
0.0271102
0.0739996
0.0739996
0.0354419
0.0354419
0.0746371
0.0746371
0.0191061
0.0191061
0.0574363
0.0574363
0.0304745
0.0304745
0.07424
0.07424
0.0583449
0.0583449
0.0683723
0.0683723
0.0717334
0.0717334
0.0491608
0.0491608
0.0547606
0.0547606
0.0542627
0.0542627
0.0309623
0.0309623
0.0603046
0.0603046
0.0422227
0.0422227
0.0266893
0.0266893
0.0512711
0.0512711
0.0329373
0.0329373
0.0631956
0.0631956
0.0556651
0.0556651
0.0496489
0.0496489
0.0298986
0.0298986
0.0659391
0.0659391
0.0198042
0.0198042
0.0657962
0.0657962
0.0275985
0.0275985
0.0648326
0.0648326
0.0559565
0.0559565
0.0354515
0.0354515
0.0673536
0.0673536
0.0158292
0.0158292
0.0152969
0.0152969
0.039738
0.039738
0.024674
0.024674
0.0557588
0.0557588
0.0447506
0.0447506
0.0543251
0.0543251
0.0569917
0.0569917
0.0349728
0.0349728
0.0649166
0.0649166
0.057043
0.057043
0.0772251
0.0772251
0.0295631
0.0295631
0.0734369
0.0734369
0.0282208
0.0282208
0.0445583
0.0445583
0.0492901
0.0492901
0.0669227
0.0669227
0.0745985
0.0745985
0.0362534
0.0362534
0.0576529
0.0576529
0.0343832
0.0343832
0.0196433
0.0196433
0.0728588
0.0728588
0.0455966
0.0455966
0.0589587
0.0589587
0.0585789
0.0585789
0.0372745
0.0372745
0.0687284
0.0687284
0.0616458
0.0616458
0.0677232
0.0677232
0.0326512
0.0326512
0.069536
0.069536
0.0746561
0.0746561
0.0618499
0.0618499
0.0220655
0.0220655
0.0395411
0.0395411
0.0390846
0.0390846
0.0571802
0.0571802
0.0748504
0.0748504
0.0140089
0.0140089
0.0215458
0.0215458
0.0752667
0.0752667
0.0733439
0.0733439
0.058947
0.058947
0.0615818
0.0615818
0.027263
0.027263
0.0445113
0.0445113
0.0689196
0.0689196
0.0703744
0.0703744
0.0779403
0.0779403
0.0232658
0.0232658
0.06545
0.06545
0.0256349
0.0256349
0.0784191
0.0784191
0.0763522
0.0763522
0.0628731
0.0628731
0.065015
0.065015
0.0671629
0.0671629
0.0594357
0.0594357
0.0753948
0.0753948
0.0629955
0.0629955
0.0696836
0.0696836
0.0625387
0.0625387
0.0525116
0.0525116
0.0607568
0.0607568
0.0676685
0.0676685
0.0188974
0.0188974
0.0659934
0.0659934
0.0721486
0.0721486
0.0497706
0.0497706
0.0685021
0.0685021
0.032491
0.032491
0.0516103
0.0516103
0.0165498
0.0165498
0.0192428
0.0192428
0.0735795
0.0735795
0.0657064
0.0657064
0.0426751
0.0426751
0.0612619
0.0612619
0.0644032
0.0644032
0.0872588
0.0872588
0.0696907
0.0696907
0.0674816
0.0674816
0.327617
0.327617
0.0628818
0.0628818
0.0281983
0.0281983
0.0665467
0.0665467
0.0603998
0.0603998
0.0631568
0.0631568
0.0744774
0.0744774
0.0534791
0.0534791
0.0617515
0.0617515
0.0730873
0.0730873
0.309943
0.309943
0.309943
0.302212
0.302212
0.302212
0.0697008
0.0697008
0.0426731
0.0426731
0.0613605
0.0613605
0.0238322
0.0238322
0.0730319
0.0730319
0.0498591
0.0498591
0.0582829
0.0582829
0.104139
0.104139
0.104139
0.0382808
0.0382808
0.0705618
0.0705618
0.070466
0.070466
0.0664362
0.0664362
0.0511416
0.0511416
0.0606383
0.0606383
0.0704233
0.0704233
0.444875
0.444875
0.0599142
0.0599142
0.0467885
0.0467885
0.070801
0.070801
0.0545497
0.0545497
0.0491988
0.0491988
0.0676752
0.0676752
0.0700472
0.0700472
0.0654693
0.0654693
0.0682567
0.0682567
0.0673891
0.0673891
0.0485043
0.0485043
0.0724418
0.0724418
0.0640629
0.0640629
0.0758853
0.0758853
0.062745
0.062745
0.0518786
0.0518786
0.0563844
0.0563844
0.0502019
0.0502019
0.0336919
0.0336919
0.072982
0.072982
0.065278
0.065278
0.0721869
0.0721869
0.0643474
0.0643474
0.070344
0.070344
0.0158022
0.0158022
0.0415572
0.0415572
0.0428998
0.0428998
0.0705814
0.0705814
0.0690237
0.0690237
0.0626058
0.0626058
0.0556547
0.0556547
0.0726219
0.0726219
0.0702558
0.0702558
0.0731088
0.0731088
0.0730605
0.0730605
0.110514
0.110514
0.110514
0.0742877
0.0742877
0.0538866
0.0538866
0.0588242
0.0588242
0.0505029
0.0505029
0.116432
0.116432
0.0437311
0.0437311
0.0701164
0.0701164
0.0740344
0.0740344
0.0497888
0.0497888
0.0669135
0.0669135
0.0747179
0.0747179
0.040208
0.040208
0.0296411
0.0296411
0.25307
0.25307
0.25307
0.0581267
0.0581267
0.0682828
0.0682828
0.0749086
0.0749086
0.0733102
0.0733102
0.0709176
0.0709176
0.0641473
0.0641473
0.0704579
0.0704579
0.0566238
0.0566238
0.0746822
0.0746822
0.059668
0.059668
0.0621211
0.0621211
0.0626577
0.0626577
0.0711967
0.0711967
0.0752086
0.0752086
0.0739408
0.0739408
0.0741529
0.0741529
0.0710064
0.0710064
0.0661748
0.0661748
0.0754802
0.0754802
0.0529097
0.0529097
0.25792
0.25792
0.0774033
0.0774033
0.0609475
0.0609475
0.0803782
0.0803782
0.0769419
0.0769419
0.429628
0.429628
0.429628
0.0743794
0.0743794
0.0759259
0.0759259
0.0727081
0.0727081
0.117617
0.117617
0.117617
0.0718323
0.0718323
0.0634297
0.0634297
0.0739334
0.0739334
0.0425403
0.0425403
0.354657
0.354657
0.0304596
0.0304596
0.0751687
0.0751687
0.0665492
0.0665492
0.0638249
0.0638249
0.0645573
0.0645573
0.0509839
0.0509839
0.0725837
0.0725837
0.0758248
0.0758248
0.0704615
0.0704615
0.0687045
0.0687045
0.074759
0.074759
0.0666182
0.0666182
0.0611735
0.0611735
0.0627301
0.0627301
0.0757762
0.0757762
0.0678178
0.0678178
0.0737313
0.0737313
0.0743844
0.0743844
0.0650596
0.0650596
0.0606354
0.0606354
0.0557004
0.0557004
0.0197102
0.0197102
0.0618641
0.0618641
0.0538958
0.0538958
0.13305
0.13305
0.049855
0.049855
0.0570133
0.0570133
0.0514332
0.0514332
0.0659636
0.0659636
0.0776679
0.0776679
0.0691665
0.0691665
0.0749686
0.0749686
0.076761
0.076761
0.0710902
0.0710902
0.057243
0.057243
0.0951698
0.0951698
0.176076
0.176076
0.176076
0.076287
0.076287
0.0772565
0.0772565
0.0314595
0.0314595
0.0619444
0.0619444
0.0708195
0.0708195
0.0841985
0.0841985
0.0765472
0.0765472
0.064482
0.064482
0.0747963
0.0747963
0.0509078
0.0509078
0.0784138
0.0784138
0.0738928
0.0738928
0.015617
0.015617
0.0507236
0.0507236
0.074801
0.074801
0.0394934
0.0394934
0.0598818
0.0598818
0.0742233
0.0742233
0.151759
0.151759
0.151759
0.0727731
0.0727731
0.0732717
0.0732717
0.0681611
0.0681611
0.0757778
0.0757778
0.0700064
0.0700064
0.0206614
0.0206614
0.072763
0.072763
0.0624353
0.0624353
0.0658956
0.0658956
0.0357436
0.0357436
0.0495932
0.0495932
0.0776018
0.0776018
0.0550905
0.0550905
0.0695696
0.0695696
0.022125
0.022125
0.0678804
0.0678804
0.0763026
0.0763026
0.075716
0.075716
0.0718943
0.0718943
0.0530116
0.0530116
0.0522509
0.0522509
0.0733896
0.0733896
0.0564226
0.0564226
0.072494
0.072494
0.0670683
0.0670683
0.0682924
0.0682924
0.0667234
0.0667234
0.0675679
0.0675679
0.0717348
0.0717348
0.0592293
0.0592293
0.0755783
0.0755783
0.0542364
0.0542364
0.0754735
0.0754735
0.0565912
0.0565912
0.0783181
0.0783181
0.0775754
0.0775754
0.0764077
0.0764077
0.0781059
0.0781059
0.0746578
0.0746578
0.0655787
0.0655787
0.0597867
0.0597867
0.0575441
0.0575441
0.0417756
0.0417756
0.074247
0.074247
0.0721322
0.0721322
0.25894
0.25894
0.0748193
0.0748193
0.0523706
0.0523706
0.0694992
0.0694992
0.0636384
0.0636384
0.326682
0.326682
0.174744
0.174744
0.0731498
0.0731498
0.0325117
0.0325117
0.0627419
0.0627419
0.0163414
0.0163414
0.0765854
0.0765854
0.0590773
0.0590773
0.0388386
0.0388386
0.0787651
0.0787651
0.0737
0.0737
0.0727357
0.0727357
0.0776606
0.0776606
0.0623255
0.0623255
0.0751032
0.0751032
0.0565285
0.0565285
0.0496834
0.0496834
0.0783647
0.0783647
0.077196
0.077196
0.0720013
0.0720013
0.0721457
0.0721457
0.0629416
0.0629416
0.0723314
0.0723314
0.0705449
0.0705449
0.0564774
0.0564774
0.0737716
0.0737716
0.0736977
0.0736977
0.0597718
0.0597718
0.0741614
0.0741614
0.0728429
0.0728429
0.0607792
0.0607792
0.068984
0.068984
0.0751754
0.0751754
0.0558896
0.0558896
0.071512
0.071512
0.0546273
0.0546273
0.0773757
0.0773757
0.0686575
0.0686575
0.0761416
0.0761416
0.215622
0.215622
0.0549624
0.0549624
0.0724692
0.0724692
0.0760685
0.0760685
0.0774751
0.0774751
0.249169
0.249169
0.249169
0.0652552
0.0652552
0.0587146
0.0587146
0.0715295
0.0715295
0.07158
0.07158
0.0462302
0.0462302
0.056947
0.056947
0.0389327
0.0389327
0.0568795
0.0568795
0.155703
0.155703
0.155703
0.0766929
0.0766929
0.0704485
0.0704485
0.0759522
0.0759522
0.060121
0.060121
0.0640481
0.0640481
0.0788383
0.0788383
0.0543185
0.0543185
0.0762977
0.0762977
0.0763379
0.0763379
0.0778507
0.0778507
0.0669962
0.0669962
0.0678859
0.0678859
0.0729378
0.0729378
0.0435731
0.0435731
0.0694541
0.0694541
0.0725963
0.0725963
0.0518204
0.0518204
0.0695492
0.0695492
0.035018
0.035018
0.06183
0.06183
0.0717704
0.0717704
0.0692753
0.0692753
0.047331
0.047331
0.0568849
0.0568849
0.0721551
0.0721551
0.0764111
0.0764111
0.0665737
0.0665737
0.0741169
0.0741169
0.0527545
0.0527545
0.0778075
0.0778075
0.0703836
0.0703836
0.0714355
0.0714355
0.0207278
0.0207278
0.0771215
0.0771215
0.0607957
0.0607957
0.0577257
0.0577257
0.0673509
0.0673509
0.0753664
0.0753664
0.0444498
0.0444498
0.0749581
0.0749581
0.341732
0.341732
0.341732
0.0782838
0.0782838
0.0547468
0.0547468
0.0724609
0.0724609
0.0763082
0.0763082
0.0730446
0.0730446
0.0561819
0.0561819
0.077396
0.077396
0.0722797
0.0722797
0.0661944
0.0661944
0.0755126
0.0755126
0.0705779
0.0705779
0.0732788
0.0732788
0.0526999
0.0526999
0.0728981
0.0728981
0.0636631
0.0636631
0.0589128
0.0589128
0.0235858
0.0235858
0.0510022
0.0510022
0.0413593
0.0413593
0.0762533
0.0762533
0.0753597
0.0753597
0.0779
0.0779
0.0769584
0.0769584
0.066513
0.066513
0.0638713
0.0638713
0.054842
0.054842
0.0498811
0.0498811
0.070049
0.070049
0.0504743
0.0504743
0.0617624
0.0617624
0.0424263
0.0424263
0.0760141
0.0760141
0.074621
0.074621
0.0716075
0.0716075
0.0784865
0.0784865
0.077475
0.077475
0.0738703
0.0738703
0.0752235
0.0752235
0.0580986
0.0580986
0.0629574
0.0629574
0.0689581
0.0689581
0.0720919
0.0720919
0.0720821
0.0720821
0.0701328
0.0701328
0.0216682
0.0216682
0.0712154
0.0712154
0.0544416
0.0544416
0.0701804
0.0701804
0.071432
0.071432
0.0685833
0.0685833
0.0738335
0.0738335
0.0746088
0.0746088
0.068037
0.068037
0.0563828
0.0563828
0.0711472
0.0711472
0.0730656
0.0730656
0.0547212
0.0547212
0.0611416
0.0611416
0.0321811
0.0321811
0.0667044
0.0667044
0.0724464
0.0724464
0.0659666
0.0659666
0.0568995
0.0568995
0.0702703
0.0702703
0.057579
0.057579
0.0674802
0.0674802
0.0738674
0.0738674
0.0775795
0.0775795
0.0745582
0.0745582
0.0742988
0.0742988
0.0602083
0.0602083
0.0748368
0.0748368
0.0771126
0.0771126