/*--------------------------------*- C++ -*----------------------------------*\
  =========                 |
  \\      /  F ield         | OpenFOAM: The Open Source CFD Toolbox
   \\    /   O peration     | Website:  https://openfoam.org
    \\  /    A nd           | Version:  8
     \\/     M anipulation  |
\*---------------------------------------------------------------------------*/
FoamFile
{
    version     2.0;
    format      ascii;
    class       volScalarField;
    location    "0.5";
    object      k;
}
// * * * * * * * * * * * * * * * * * * * * * * * * * * * * * * * * * * * * * //

dimensions      [0 2 -2 0 0 0 0];

internalField   nonuniform List<scalar> 
1924
(
0.0292948
0.0311568
0.0394937
0.0411318
0.0328764
0.0420381
0.0424682
0.0430259
0.0430555
0.0376733
0.0435197
0.0434283
0.0208495
0.043926
0.0438571
0.0435098
0.0227062
0.0438253
0.0267829
0.0440773
0.0178656
0.0373063
0.0243672
0.0439195
0.0376732
0.0418322
0.0431521
0.0333055
0.0358125
0.0355611
0.0247604
0.0385074
0.0302505
0.0223708
0.0341993
0.0256359
0.0397279
0.0361677
0.0335346
0.0242424
0.0408533
0.018293
0.0407832
0.022664
0.0400704
0.0364255
0.0266669
0.0411169
0.015628
0.0153194
0.0285058
0.0213102
0.0365819
0.0309849
0.0358169
0.0367163
0.0264934
0.040112
0.0367348
0.0451831
0.0235857
0.0436358
0.0227869
0.0312453
0.0331867
0.0409342
0.0440423
0.027419
0.0370903
0.02584
0.0179491
0.0434156
0.0316752
0.0375919
0.0374344
0.0279268
0.0416825
0.0387351
0.0412633
0.0250154
0.0420267
0.0442833
0.0388293
0.0197056
0.0288833
0.0288792
0.0367946
0.0441811
0.0143927
0.019225
0.0443109
0.0437858
0.0377571
0.0388386
0.0225936
0.0309405
0.0417595
0.042367
0.0454485
0.0204225
0.0402606
0.0217499
0.0456022
0.044918
0.0393582
0.0401442
0.0410154
0.0379778
0.0444872
0.0394059
0.0420746
0.0391332
0.0347807
0.0383461
0.0412382
0.0177165
0.0404837
0.0430995
0.0338166
0.0415867
0.0252908
0.0180921
0.016146
0.0178681
0.0436863
0.0405753
0.0305382
0.0385707
0.0399437
0.0243974
0.0420779
0.0411157
0.0283579
0.0392444
0.0232951
0.0408536
0.0381672
0.0393451
0.0440132
0.0351491
0.0387457
0.0435041
0.0225435
0.0229706
0.0420556
0.0303009
0.0387954
0.0206314
0.0435203
0.0337675
0.0373295
0.0181977
0.0283477
0.0424299
0.0423839
0.0408783
0.0179837
0.0382287
0.042381
0.0344783
0.0379828
0.0324538
0.0425184
0.0187729
0.0333447
0.0413276
0.042316
0.0176261
0.0414849
0.0411704
0.0331344
0.043202
0.0397485
0.0447431
0.0391407
0.0348291
0.0364644
0.0126985
0.0259226
0.043421
0.0405109
0.0431122
0.0398638
0.0424564
0.0156159
0.0297442
0.0306268
0.0426279
0.0418029
0.0391302
0.0363876
0.0432777
0.0423114
0.0434733
0.0435242
0.0189341
0.0440789
0.0357664
0.037862
0.0342993
0.0217306
0.0307451
0.0423018
0.0438453
0.0336449
0.0411984
0.0441203
0.0293691
0.0237901
0.0200497
0.0195866
0.0415081
0.0441856
0.0436391
0.0427928
0.0397814
0.0424848
0.0368584
0.0441036
0.0378939
0.0391735
0.0391709
0.0427531
0.0443074
0.0438065
0.0440497
0.0426203
0.0406343
0.0444645
0.0353814
0.0303097
0.045117
0.0387662
0.0162836
0.0450886
0.0279933
0.0439764
0.0445914
0.0433478
0.0197387
0.0429852
0.0398246
0.0437973
0.0305162
0.0370806
0.0242934
0.0442907
0.0407539
0.0396468
0.0399584
0.0338866
0.0204826
0.0446129
0.0424206
0.0416716
0.0441322
0.0411004
0.0389283
0.0394305
0.0445304
0.0414818
0.0437654
0.04419
0.0401613
0.0386244
0.0361982
0.018149
0.038826
0.0356309
0.0231634
0.0340478
0.0367664
0.034468
0.0408732
0.0452334
0.0418778
0.0442103
0.0450353
0.0426623
0.0372446
0.0206786
0.0206117
0.0446725
0.0451394
0.0247192
0.0388541
0.0425441
0.0222543
0.0448316
0.0402684
0.0441719
0.0340839
0.045632
0.0437857
0.0156065
0.0340053
0.0441516
0.0291356
0.037984
0.0439207
0.0227528
0.043354
0.0435344
0.0415405
0.0445278
0.0424934
0.0186845
0.0433302
0.0394549
0.040509
0.0271546
0.0335689
0.0452818
0.0362379
0.0420298
0.0196137
0.0415195
0.0447352
0.0445378
0.0431053
0.035019
0.0351155
0.0435948
0.0364971
0.0434581
0.0410128
0.0417901
0.041204
0.0411754
0.0429172
0.0381005
0.0444278
0.0358507
0.0444075
0.036573
0.0456084
0.045248
0.0447951
0.0454517
0.0441053
0.0403928
0.0379241
0.0373061
0.0302628
0.0439322
0.0431181
0.0289757
0.0441657
0.0346788
0.0422854
0.0398741
0.0331612
0.02935
0.0434919
0.0255744
0.0392029
0.0159567
0.0448511
0.0380453
0.0282722
0.0457237
0.0437168
0.043322
0.045246
0.0393281
0.0442773
0.0368594
0.0339597
0.0455526
0.0451024
0.0430249
0.0432105
0.0396462
0.043172
0.0426933
0.0137181
0.0437442
0.0437073
0.0382507
0.0439133
0.0434067
0.0383698
0.0420488
0.0443808
0.0366986
0.042828
0.03572
0.0451388
0.041933
0.044684
0.0309645
0.0361449
0.0434154
0.0446341
0.0451996
0.0175637
0.040527
0.0377993
0.0428344
0.0428987
0.0319734
0.0367253
0.028918
0.0368837
0.015301
0.0449208
0.0423995
0.0445898
0.0384673
0.040029
0.0457614
0.0358507
0.0447384
0.0447551
0.0453444
0.0410541
0.0413551
0.0434171
0.0310353
0.0419751
0.0432761
0.0349078
0.0420347
0.0269119
0.0391029
0.0429358
0.0419098
0.032453
0.0369899
0.0433166
0.0448157
0.0408139
0.044024
0.0351212
0.0453294
0.0426034
0.0427978
0.0185706
0.0450589
0.0386736
0.0374861
0.0413696
0.0444704
0.0310665
0.044216
0.021628
0.0454955
0.0357666
0.0434149
0.0447246
0.0434438
0.0366718
0.0452214
0.0431376
0.0408964
0.0445859
0.0424501
0.0435513
0.0350124
0.0434476
0.0396011
0.0378712
0.0203941
0.034259
0.030106
0.0447082
0.0443504
0.0453521
0.0449934
0.0407578
0.0399315
0.0360782
0.0336092
0.0422369
0.0342738
0.038798
0.0302167
0.0446404
0.0440904
0.0429328
0.0455868
0.0451995
0.0438027
0.0443015
0.0375121
0.0395582
0.0419974
0.0430869
0.0432127
0.042264
0.0191409
0.0428779
0.0358518
0.042277
0.0428115
0.0416419
0.0438006
0.0441077
0.0416182
0.0364869
0.0426892
0.0434632
0.0361845
0.0388136
0.0254361
0.0409232
0.0432285
0.040769
0.0369678
0.0423254
0.0370073
0.0411911
0.0438097
0.0453067
0.0440147
0.0439252
0.0384185
0.0443396
0.0450606
0.0431114
0.0355561
0.0433125
0.0400585
0.042211
0.0456262
0.0452772
0.0336691
0.0250379
0.0404314
0.0448257
0.0350809
0.0445319
0.0366851
0.0288299
0.028995
0.0435371
0.0451622
0.0351178
0.0218007
0.0396934
0.0377403
0.0357363
0.0271864
0.0360326
0.0417437
0.0421567
0.0320919
0.029571
0.0437273
0.0430379
0.0419827
0.0426313
0.0429221
0.0360805
0.0413919
0.0304085
0.026287
0.0309789
0.0355694
0.0300052
0.039366
0.0359319
0.034419
0.0427669
0.0368237
0.0309106
0.0392994
0.0425203
0.0325324
0.0374554
0.0414478
0.0423073
0.0411515
0.0426165
0.0336429
0.0427454
0.0270349
0.0270046
0.0420962
0.0325649
0.0385857
0.0435353
0.0449422
0.0424683
0.0342132
0.0271484
0.0425778
0.035549
0.040471
0.0370651
0.0404723
0.0362618
0.0216828
0.0333016
0.0301217
0.042039
0.0426493
0.0414315
0.043455
0.0359505
0.0285797
0.0426899
0.0447528
0.0283296
0.0367538
0.0442791
0.0450533
0.0374125
0.0316725
0.0369851
0.0401935
0.0433029
0.0287134
0.0421549
0.0382418
0.0436373
0.0456969
0.0303663
0.0335069
0.0321952
0.0416421
0.0398218
0.0427779
0.0395145
0.0448206
0.0325781
0.0276186
0.0435498
0.04564
0.030668
0.0431361
0.0415766
0.0412368
0.0353601
0.0367012
0.0309167
0.0415108
0.032591
0.0415575
0.041488
0.0417189
0.0417091
0.0375729
0.0410358
0.0411446
0.0431559
0.0391246
0.0429568
0.041603
0.0359928
0.0370686
0.0416921
0.036991
0.0455501
0.028134
0.0415709
0.0371614
0.0363778
0.040861
0.0321222
0.0327296
0.0292846
0.0326149
0.040715
0.0416088
0.0283279
0.0401954
0.0433037
0.0370786
0.0373492
0.0383035
0.0379674
0.0206069
0.0424671
0.0431457
0.0402358
0.0447202
0.0429836
0.0324847
0.0295893
0.0417894
0.0418228
0.0429104
0.0424446
0.0399337
0.0446421
0.0417778
0.0312424
0.0413611
0.0294705
0.0357973
0.0441297
0.0428157
0.0411914
0.0377797
0.0424802
0.0308508
0.0336554
0.0380354
0.0390068
0.0385513
0.0368661
0.0412702
0.025817
0.0347766
0.0412836
0.0410459
0.0411428
0.0413216
0.0372404
0.0377165
0.0317206
0.0410775
0.0316578
0.040667
0.0455313
0.0410454
0.0378432
0.0425344
0.0222134
0.0325595
0.0430793
0.036927
0.0297738
0.043023
0.0112675
0.0104456
0.0325415
0.0296954
0.0407235
0.0410827
0.032522
0.0334145
0.0386919
0.0424747
0.0404734
0.0418629
0.0410898
0.0428794
0.0373456
0.0345822
0.0412508
0.0375948
0.0147412
0.0431709
0.0238563
0.0376076
0.0305743
0.0377193
0.0404286
0.0397022
0.0411838
0.0446105
0.0296013
0.0320345
0.0456278
0.0288784
0.0344579
0.0318238
0.0429208
0.0290788
0.0414688
0.0427659
0.0390059
0.0393521
0.0319322
0.0407316
0.038001
0.0316919
0.0409233
0.043038
0.0408614
0.0358241
0.0407972
0.0272292
0.0409478
0.0377992
0.0406471
0.031824
0.0408662
0.0374259
0.0339566
0.0442366
0.0358062
0.0442321
0.0288133
0.043032
0.0411217
0.0415218
0.0352462
0.0329998
0.0385236
0.0415165
0.0408284
0.038516
0.0382169
0.0409862
0.0290849
0.0411257
0.038609
0.0213238
0.0312034
0.0401379
0.0270366
0.0345588
0.0429919
0.0277988
0.0430251
0.0410625
0.0380444
0.0288165
0.0404922
0.0357908
0.0189633
0.0386116
0.0321973
0.042446
0.0338108
0.0399115
0.0343631
0.0381078
0.0450553
0.0423236
0.0341674
0.0417462
0.0403678
0.0384183
0.0420358
0.0411557
0.0331923
0.0430157
0.0352959
0.0386145
0.0403107
0.0389815
0.0401979
0.0326687
0.0422841
0.039217
0.0135642
0.0431678
0.0235441
0.0407084
0.0402185
0.0173617
0.0385757
0.0408369
0.0388219
0.042688
0.0388017
0.0442117
0.0416085
0.0337631
0.0331852
0.0430197
0.041002
0.03833
0.0386509
0.0354685
0.028457
0.0421217
0.0423721
0.040935
0.0274441
0.0380317
0.0411531
0.0356306
0.0400383
0.034351
0.0346441
0.0386479
0.0389312
0.0378434
0.043931
0.0388202
0.027229
0.0339497
0.0376082
0.0122215
0.04112
0.0232279
0.03899
0.0425743
0.0272569
0.0411443
0.039393
0.0411629
0.0435112
0.041714
0.0418852
0.0390983
0.0359811
0.0178092
0.0420699
0.0404455
0.0405342
0.040043
0.0428754
0.0382056
0.043007
0.0350726
0.0271572
0.0390212
0.0327304
0.0398748
0.0391652
0.041212
0.0356335
0.0402495
0.0412598
0.0400579
0.0267574
0.0400619
0.0226164
0.034239
0.0414675
0.036113
0.039827
0.0390546
0.0285092
0.0272391
0.0429889
0.0394497
0.0327534
0.0391411
0.0358678
0.0347581
0.0451936
0.0441314
0.0407444
0.0391848
0.0427992
0.0396632
0.0382861
0.0412278
0.026323
0.0424668
0.0386489
0.0410121
0.041577
0.0290515
0.0269327
0.038796
0.0300675
0.0244665
0.041194
0.0394301
0.0412554
0.0359217
0.0430034
0.0379498
0.0396368
0.0247698
0.0389792
0.042199
0.0175233
0.0379887
0.00820301
0.0366354
0.0426985
0.0351485
0.0364906
0.0392494
0.0444716
0.0358853
0.0413234
0.0420436
0.0398584
0.0402122
0.0363119
0.0298334
0.039464
0.0268901
0.0403127
0.0427276
0.0216654
0.0410875
0.0405228
0.0420509
0.0336115
0.0429496
0.0406009
0.0376012
0.0396497
0.040186
0.0418323
0.0397615
0.0286026
0.0249014
0.0382128
0.0359821
0.0414297
0.035447
0.0398635
0.0386455
0.0272653
0.0377741
0.0422864
0.042428
0.0371431
0.0402298
0.0368156
0.0378407
0.0426462
0.0390397
0.0280104
0.04289
0.0434072
0.0394189
0.0295924
0.0401369
0.0372044
0.0428663
0.0412258
0.0395387
0.0387824
0.0412418
0.0410539
0.039366
0.0402895
0.039968
0.0414655
0.0400023
0.0134936
0.0280064
0.0306307
0.0411528
0.0396236
0.041568
0.0401166
0.033806
0.0307552
0.0374744
0.0386388
0.0421549
0.0322996
0.0334116
0.0398322
0.0436794
0.0353716
0.0401906
0.037053
0.0428562
0.0442834
0.0419539
0.0428114
0.0406922
0.036663
0.0407124
0.0407343
0.0412482
0.0400447
0.0408018
0.0373274
0.0404574
0.0415514
0.0444499
0.0406592
0.0408618
0.0416983
0.0365703
0.0409229
0.0368908
0.0371782
0.0229818
0.037678
0.0288748
0.0423888
0.0406957
0.0359318
0.0358028
0.0428933
0.0360446
0.0402994
0.0377762
0.0409911
0.041247
0.0228027
0.042791
0.0383028
0.040574
0.0174706
0.0408883
0.0387306
0.0213165
0.0360733
0.0360344
0.0313064
0.0411335
0.0428284
0.040967
0.0390621
0.0426193
0.0174623
0.0180639
0.0406815
0.0409804
0.0423579
0.0417053
0.0413787
0.0369382
0.0362413
0.0393061
0.0359465
0.0175509
0.0409846
0.0217557
0.0354046
0.0409365
0.0422812
0.040915
0.0371098
0.0420337
0.0110644
0.0129035
0.0446042
0.0373975
0.0405282
0.0387425
0.0369218
0.0409328
0.0409582
0.0358964
0.0427964
0.0388523
0.0381843
0.0343027
0.0408282
0.0375682
0.0162822
0.0296779
0.0426863
0.041713
0.0425637
0.0381343
0.0355941
0.0408162
0.0381917
0.0364923
0.0319891
0.0385948
0.0427139
0.0154861
0.031306
0.0346134
0.0394454
0.0169956
0.0407559
0.0389431
0.0192923
0.0107591
0.0409689
0.0360144
0.0425371
0.0425043
0.0414516
0.039376
0.0373228
0.041338
0.0354805
0.0405992
0.0409192
0.0170983
0.0173717
0.0406117
0.0135679
0.0347285
0.0406744
0.0319147
0.0391795
0.0393764
0.0350368
0.0348946
0.0349902
0.0444881
0.0423714
0.0403414
0.0248909
0.0399542
0.0421368
0.0418207
0.0340862
0.0425155
0.0354357
0.0403352
0.0324217
0.0209632
0.0394393
0.0409813
0.0409249
0.017945
0.0332027
0.0409087
0.023306
0.0183284
0.0422013
0.0289004
0.0408162
0.03393
0.0333951
0.0414521
0.0417653
0.0404916
0.0316856
0.0408867
0.0345432
0.0405869
0.0306167
0.0303207
0.0421402
0.0350057
0.0401134
0.0359921
0.0424469
0.0326212
0.0323887
0.041975
0.0391953
0.0374386
0.00742967
0.00688209
0.040759
0.0404534
0.0352876
0.0353894
0.0417622
0.0360345
0.0328911
0.0225266
0.0185537
0.0375021
0.0392069
0.0407895
0.0380114
0.0420075
0.0419099
0.0418254
0.0311138
0.0410111
0.0309658
0.0400906
0.0418308
0.0403234
0.0303258
0.0294861
0.04187
0.0353504
0.0398558
0.031791
0.0198501
0.040373
0.0326199
0.0418542
0.033382
0.0410772
0.0190346
0.0360653
0.0275373
0.0226909
0.0399889
0.0414981
0.034026
0.0188757
0.0282823
0.0389773
0.0314912
0.0306925
0.0345085
0.0302446
0.0379123
0.0405792
0.0357524
0.0331249
0.0298718
0.0320007
0.0401432
0.0418261
0.0404936
0.031306
0.0334107
0.0262625
0.040622
0.0402292
0.0189779
0.0415242
0.0190804
0.040488
0.0413736
0.0397062
0.0400222
0.0401394
0.0347897
0.0411057
0.0283742
0.0404702
0.0311236
0.0401246
0.0412668
0.0400353
0.0351942
0.0157445
0.0405283
0.0386785
0.0276218
0.0405406
0.0397811
0.030899
0.0406578
0.0157637
0.0297091
0.0396537
0.0409436
0.0159934
0.0282769
0.0384632
0.036579
0.040649
0.0286631
0.0399669
0.0398764
0.0184421
0.0397751
0.0393127
0.0396016
0.0347181
0.0393565
0.0167283
0.0398196
0.0364683
0.0287997
0.0400942
0.0405455
0.0296563
0.0394515
0.0400211
0.034105
0.0354375
0.0341727
0.0407838
0.0145306
0.0156018
0.0331475
0.0303955
0.0360165
0.0190597
0.039033
0.0391362
0.0208261
0.0401459
0.0347538
0.0393692
0.0384816
0.0208216
0.015899
0.0356246
0.0387698
0.0195477
0.00812469
0.00794988
0.0285265
0.0292957
0.0350437
0.0275794
0.0393514
0.0403681
0.0397109
0.0388336
0.040293
0.0392145
0.0148091
0.0387518
0.0172238
0.0177329
0.0407813
0.0385438
0.0262586
0.0164759
0.039739
0.0276035
0.0392634
0.0193691
0.0269045
0.0199138
0.0394789
0.0175905
0.0294223
0.0235302
0.0206403
0.0389774
0.0196978
0.038662
0.0378689
0.0158205
0.0213799
0.0351535
0.0220336
0.0352265
0.0143779
0.0225368
0.0342989
0.0205994
0.0345687
0.0354211
0.0205634
0.0171416
0.0228298
0.0394594
0.0310901
0.0395557
0.0394617
0.0357061
0.0376648
0.0347785
0.038812
0.0346931
0.0382663
0.019155
0.0354405
0.022218
0.0382986
0.0345252
0.0388063
0.0313028
0.0331029
0.0181437
0.0256336
0.0228545
0.0384735
0.0369198
0.0384432
0.0340236
0.0381399
0.0259393
0.0347047
0.0389221
0.0177628
0.0344164
0.0374941
0.0242736
0.0229982
0.0318423
0.03411
0.0337446
0.0373078
0.0380422
0.0191189
0.0378671
0.0380808
0.0186816
0.0377111
0.0389873
0.0188341
0.0349742
0.0353771
0.0389299
0.0227243
0.0342067
0.0382512
0.0380585
0.0181957
0.0373196
0.0335907
0.0347866
0.0381915
0.0128112
0.0378436
0.0308846
0.0382889
0.0392826
0.0374844
0.0332454
0.0262992
0.0389791
0.023119
0.0393091
0.0235354
0.0375708
0.0166329
0.0235093
0.0224261
0.0182669
0.0367512
0.0187396
0.036015
0.0342297
0.0229677
0.0164641
0.0167934
0.0207297
0.0371073
0.0352233
0.0368146
0.0257924
0.0332912
0.0333046
0.0174606
0.0370841
0.0255887
0.0359158
0.0362679
0.033631
0.0361732
0.0365838
0.0265115
0.0314983
0.0225291
0.0372975
0.0362754
0.0308634
0.0362412
0.0216347
0.0181661
0.0324052
0.0143887
0.0185694
0.0363414
0.019244
0.0361507
0.0359185
0.0200389
0.0369761
0.022074
0.0208302
0.0343275
0.0299164
0.016403
0.0215386
0.0220925
0.0362846
0.0352241
0.0346174
0.0357545
0.0330598
0.0342801
0.0319562
0.0348646
0.0139352
0.0156984
0.0224229
0.0352324
0.0337424
0.0354053
0.0228274
0.0341132
0.0172335
0.0233492
0.0340189
0.0341733
0.0231523
0.0144762
0.0283602
0.0204951
0.0224725
0.0223427
0.0362841
0.0155617
0.0292956
0.0322152
0.0325282
0.031836
0.0340285
0.0179736
0.0173765
0.0331406
0.035418
0.0166965
0.037256
0.0222315
0.0325669
0.0326461
0.0149785
0.0214816
0.02193
0.0217671
0.0283313
0.0301251
0.0372792
0.0327447
0.0342773
0.0371911
0.0281489
0.0332489
0.0374891
0.0318559
0.0157556
0.0355777
0.0286565
0.0351433
0.0127067
0.0338574
0.0223099
0.0375194
0.0347672
0.0114295
0.0133423
0.0317653
0.0316882
0.030394
0.0308449
0.0214623
0.0318825
0.0130155
0.0154106
0.0194187
0.0307308
0.0353688
0.0341494
0.0309491
0.0336684
0.0294273
0.0216522
0.0332459
0.0173715
0.0183185
0.0306422
0.0145169
0.03324
0.0193974
0.0300239
0.0354959
0.0318755
0.0340002
0.0326454
0.0308708
0.0189099
0.0355677
0.0220594
0.0126571
0.0296397
0.0219997
0.0144114
0.0333971
0.0291424
0.0304366
0.0228422
0.0286997
0.0211133
0.0214869
0.0353532
0.0353801
0.0226835
0.0189837
0.0309454
0.0224131
0.0372124
0.0275655
0.010277
0.0277833
0.0304473
0.028218
0.019612
0.0304005
0.0336285
0.0100681
0.00891659
0.0333456
0.0181552
0.03265
0.0315136
0.0300458
0.0320124
0.0274271
0.0313828
0.0213859
0.0299114
0.0322707
0.0285458
0.0318122
0.0267803
0.0266852
0.0148452
0.0106841
0.0252113
0.0337361
0.0270814
0.023199
0.0319768
0.0202185
0.0207866
0.0303702
0.0292408
0.019532
0.0313793
0.0217904
0.0216755
0.0252417
0.0250005
0.0263951
0.0285657
0.0181269
0.017646
0.031507
0.0184177
0.0206806
0.018603
0.0221431
0.023882
0.0244913
0.0285512
0.0264546
0.0115521
0.00871964
0.0321303
0.0223628
0.0278516
0.0207376
0.0205318
0.0302072
0.0297546
0.032087
0.0276525
0.0284042
0.0251003
0.0295294
0.0174139
0.0169529
0.0243377
0.0195983
0.030125
0.0186106
0.0248411
0.0193297
0.0212485
0.0205006
0.0268413
0.0183778
0.0283253
0.0176835
0.0224777
0.0288257
0.0176387
0.0157277
0.0207955
0.0203162
0.0191986
0.0193366
0.0275701
0.0131435
0.0258965
0.0163906
0.0185238
0.0265372
0.0224261
0.016007
0.0181383
0.0196207
0.0183658
0.0209948
0.016669
0.0198319
0.0146151
0.0224637
0.024281
0.0250429
0.0263431
0.0146467
0.012043
0.0133449
0.0180859
0.0227472
0.0211459
0.0241366
0.0271561
0.0247365
0.0220701
0.0124726
0.0150362
0.0202216
0.0183941
0.0135891
0.0110198
0.012315
0.0189902
0.0205564
0.00657003
0.00708466
0.00538998
0.00455341
0.00883191
0.00872669
0.0165537
0.0163648
0.0201951
0.0178379
0.0180466
0.020356
0.014967
0.0150158
0.021121
0.0211675
0.015793
0.0138789
0.0194339
0.0125305
0.0146469
0.0152795
0.0170583
0.00846711
0.00731595
0.00906221
0.0121986
0.0120152
0.0135578
0.0137094
0.0167252
0.018562
0.040486
0.0221792
0.0254621
0.0237896
0.0141646
0.0113767
0.0335352
0.0245726
0.0310007
0.00790764
0.0197856
0.0349102
0.0265473
0.0198489
0.0121211
0.014237
0.041014
0.0325805
0.0179891
0.00610888
0.0186912
0.0353434
0.0159926
0.0346397
0.035216
0.0207833
0.0213656
0.0327997
0.0347246
0.00736473
0.0102177
0.0186817
0.014152
0.0214925
0.0134801
0.0169307
0.0153245
0.0334909
0.0209305
0.0313053
0.0103621
0.00704263
0.00878264
0.0227857
0.031744
0.0349682
0.0110945
0.0160051
0.0182667
0.0325761
0.0340399
0.0231251
0.0227968
0.0408253
0.0187715
0.0160275
0.0138489
0.011067
0.0207355
0.0143845
0.0212363
0.0167444
0.0141946
0.0152921
0.00874286
0.00823875
0.0322589
0.0326954
0.0150318
0.0411849
0.0139327
0.0112663
0.0228435
0.0143859
0.0168592
0.0120324
0.0318456
0.0154995
0.0173397
0.0238324
0.00672829
0.0161576
0.01784
0.0169937
0.0122225
0.0426603
0.0177425
0.0328325
0.00851653
0.0187102
0.043409
0.0176295
0.0135682
0.012376
0.0238829
0.0323673
0.0438541
0.0157673
0.0146559
0.01042
0.0334172
0.0427593
0.0157234
0.0429519
0.0328809
0.0126743
0.0338909
0.043147
0.0210574
0.0343904
0.0219342
0.0176128
0.0171901
0.0118401
0.0335597
0.0132905
0.0133049
0.0435787
)
;

boundaryField
{
    patch0
    {
        type            kqRWallFunction;
        value           nonuniform List<scalar> 
4010
(
0.0292948
0.0292948
0.0311568
0.0311568
0.0394937
0.0394937
0.0411318
0.0411318
0.0328764
0.0328764
0.0420381
0.0420381
0.0424682
0.0424682
0.0430259
0.0430259
0.0430555
0.0430555
0.0376733
0.0376733
0.0435197
0.0435197
0.0434283
0.0434283
0.0208495
0.0208495
0.043926
0.043926
0.0438571
0.0438571
0.0435098
0.0435098
0.0227062
0.0227062
0.0438253
0.0438253
0.0267829
0.0267829
0.0440773
0.0440773
0.0178656
0.0178656
0.0373063
0.0373063
0.0243672
0.0243672
0.0439195
0.0439195
0.0376732
0.0376732
0.0418322
0.0418322
0.0431521
0.0431521
0.0333055
0.0333055
0.0358125
0.0358125
0.0355611
0.0355611
0.0247604
0.0247604
0.0385074
0.0385074
0.0302505
0.0302505
0.0223708
0.0223708
0.0341993
0.0341993
0.0256359
0.0256359
0.0397279
0.0397279
0.0361677
0.0361677
0.0335346
0.0335346
0.0242424
0.0242424
0.0408533
0.0408533
0.018293
0.018293
0.0407832
0.0407832
0.022664
0.022664
0.0400704
0.0400704
0.0364255
0.0364255
0.0266669
0.0266669
0.0411169
0.0411169
0.015628
0.015628
0.0153194
0.0153194
0.0285058
0.0285058
0.0213102
0.0213102
0.0365819
0.0365819
0.0309849
0.0309849
0.0358169
0.0358169
0.0367163
0.0367163
0.0264934
0.0264934
0.040112
0.040112
0.0367348
0.0367348
0.0451831
0.0451831
0.0235857
0.0235857
0.0436358
0.0436358
0.0227869
0.0227869
0.0312453
0.0312453
0.0331867
0.0331867
0.0409342
0.0409342
0.0440423
0.0440423
0.027419
0.027419
0.0370903
0.0370903
0.02584
0.02584
0.0179491
0.0179491
0.0434156
0.0434156
0.0316752
0.0316752
0.0375919
0.0375919
0.0374344
0.0374344
0.0279268
0.0279268
0.0416825
0.0416825
0.0387351
0.0387351
0.0412633
0.0412633
0.0250154
0.0250154
0.0420267
0.0420267
0.0442833
0.0442833
0.0388293
0.0388293
0.0197056
0.0197056
0.0288833
0.0288833
0.0288792
0.0288792
0.0367946
0.0367946
0.0441811
0.0441811
0.0143927
0.0143927
0.019225
0.019225
0.0443109
0.0443109
0.0437858
0.0437858
0.0377571
0.0377571
0.0388386
0.0388386
0.0225936
0.0225936
0.0309405
0.0309405
0.0417595
0.0417595
0.042367
0.042367
0.0454485
0.0454485
0.0204225
0.0204225
0.0402606
0.0402606
0.0217499
0.0217499
0.0456022
0.0456022
0.044918
0.044918
0.0393582
0.0393582
0.0401442
0.0401442
0.0410154
0.0410154
0.0379778
0.0379778
0.0444872
0.0444872
0.0394059
0.0394059
0.0420746
0.0420746
0.0391332
0.0391332
0.0347807
0.0347807
0.0383461
0.0383461
0.0412382
0.0412382
0.0177165
0.0177165
0.0404837
0.0404837
0.0430995
0.0430995
0.0338166
0.0338166
0.0415867
0.0415867
0.0252908
0.0252908
0.0180921
0.0180921
0.016146
0.016146
0.0178681
0.0178681
0.0436863
0.0436863
0.0405753
0.0405753
0.0305382
0.0305382
0.0385707
0.0385707
0.0399437
0.0399437
0.0243974
0.0243974
0.0420779
0.0420779
0.0411157
0.0411157
0.0283579
0.0283579
0.0392444
0.0392444
0.0232951
0.0232951
0.0408536
0.0408536
0.0381672
0.0381672
0.0393451
0.0393451
0.0440132
0.0440132
0.0351491
0.0351491
0.0387457
0.0387457
0.0435041
0.0435041
0.0225435
0.0225435
0.0225435
0.0229706
0.0229706
0.0229706
0.0420556
0.0420556
0.0303009
0.0303009
0.0387954
0.0387954
0.0206314
0.0206314
0.0435203
0.0435203
0.0337675
0.0337675
0.0373295
0.0373295
0.0181977
0.0181977
0.0181977
0.0283477
0.0283477
0.0424299
0.0424299
0.0423839
0.0423839
0.0408783
0.0408783
0.0179837
0.0179837
0.0382287
0.0382287
0.042381
0.042381
0.0344783
0.0344783
0.0379828
0.0379828
0.0324538
0.0324538
0.0425184
0.0425184
0.0187729
0.0187729
0.0333447
0.0333447
0.0413276
0.0413276
0.042316
0.042316
0.0176261
0.0176261
0.0414849
0.0414849
0.0411704
0.0411704
0.0331344
0.0331344
0.043202
0.043202
0.0397485
0.0397485
0.0447431
0.0447431
0.0391407
0.0391407
0.0348291
0.0348291
0.0364644
0.0364644
0.0126985
0.0126985
0.0259226
0.0259226
0.043421
0.043421
0.0405109
0.0405109
0.0431122
0.0431122
0.0398638
0.0398638
0.0424564
0.0424564
0.0156159
0.0156159
0.0297442
0.0297442
0.0306268
0.0306268
0.0426279
0.0426279
0.0418029
0.0418029
0.0391302
0.0391302
0.0363876
0.0363876
0.0432777
0.0432777
0.0423114
0.0423114
0.0434733
0.0434733
0.0435242
0.0435242
0.0189341
0.0189341
0.0189341
0.0440789
0.0440789
0.0357664
0.0357664
0.037862
0.037862
0.0342993
0.0342993
0.0217306
0.0217306
0.0307451
0.0307451
0.0423018
0.0423018
0.0438453
0.0438453
0.0336449
0.0336449
0.0411984
0.0411984
0.0441203
0.0441203
0.0293691
0.0293691
0.0237901
0.0237901
0.0200497
0.0200497
0.0200497
0.0195866
0.0195866
0.0415081
0.0415081
0.0441856
0.0441856
0.0436391
0.0436391
0.0427928
0.0427928
0.0397814
0.0397814
0.0424848
0.0424848
0.0368584
0.0368584
0.0441036
0.0441036
0.0378939
0.0378939
0.0391735
0.0391735
0.0391709
0.0391709
0.0427531
0.0427531
0.0443074
0.0443074
0.0438065
0.0438065
0.0440497
0.0440497
0.0426203
0.0426203
0.0406343
0.0406343
0.0444645
0.0444645
0.0353814
0.0353814
0.0303097
0.0303097
0.045117
0.045117
0.0387662
0.0387662
0.0162836
0.0162836
0.0450886
0.0450886
0.0279933
0.0279933
0.0279933
0.0439764
0.0439764
0.0445914
0.0445914
0.0433478
0.0433478
0.0197387
0.0197387
0.0197387
0.0429852
0.0429852
0.0398246
0.0398246
0.0437973
0.0437973
0.0305162
0.0305162
0.0370806
0.0370806
0.0242934
0.0242934
0.0442907
0.0442907
0.0407539
0.0407539
0.0396468
0.0396468
0.0399584
0.0399584
0.0338866
0.0338866
0.0204826
0.0204826
0.0446129
0.0446129
0.0424206
0.0424206
0.0416716
0.0416716
0.0441322
0.0441322
0.0411004
0.0411004
0.0389283
0.0389283
0.0394305
0.0394305
0.0445304
0.0445304
0.0414818
0.0414818
0.0437654
0.0437654
0.04419
0.04419
0.0401613
0.0401613
0.0386244
0.0386244
0.0361982
0.0361982
0.018149
0.018149
0.038826
0.038826
0.0356309
0.0356309
0.0231634
0.0231634
0.0340478
0.0340478
0.0367664
0.0367664
0.034468
0.034468
0.0408732
0.0408732
0.0452334
0.0452334
0.0418778
0.0418778
0.0442103
0.0442103
0.0450353
0.0450353
0.0426623
0.0426623
0.0372446
0.0372446
0.0206786
0.0206786
0.0206117
0.0206117
0.0206117
0.0446725
0.0446725
0.0451394
0.0451394
0.0247192
0.0247192
0.0388541
0.0388541
0.0425441
0.0425441
0.0222543
0.0222543
0.0448316
0.0448316
0.0402684
0.0402684
0.0441719
0.0441719
0.0340839
0.0340839
0.045632
0.045632
0.0437857
0.0437857
0.0156065
0.0156065
0.0340053
0.0340053
0.0441516
0.0441516
0.0291356
0.0291356
0.037984
0.037984
0.0439207
0.0439207
0.0227528
0.0227528
0.0227528
0.043354
0.043354
0.0435344
0.0435344
0.0415405
0.0415405
0.0445278
0.0445278
0.0424934
0.0424934
0.0186845
0.0186845
0.0433302
0.0433302
0.0394549
0.0394549
0.040509
0.040509
0.0271546
0.0271546
0.0335689
0.0335689
0.0452818
0.0452818
0.0362379
0.0362379
0.0420298
0.0420298
0.0196137
0.0196137
0.0415195
0.0415195
0.0447352
0.0447352
0.0445378
0.0445378
0.0431053
0.0431053
0.035019
0.035019
0.0351155
0.0351155
0.0435948
0.0435948
0.0364971
0.0364971
0.0434581
0.0434581
0.0410128
0.0410128
0.0417901
0.0417901
0.041204
0.041204
0.0411754
0.0411754
0.0429172
0.0429172
0.0381005
0.0381005
0.0444278
0.0444278
0.0358507
0.0358507
0.0444075
0.0444075
0.036573
0.036573
0.0456084
0.0456084
0.045248
0.045248
0.0447951
0.0447951
0.0454517
0.0454517
0.0441053
0.0441053
0.0403928
0.0403928
0.0379241
0.0379241
0.0373061
0.0373061
0.0302628
0.0302628
0.0439322
0.0439322
0.0431181
0.0431181
0.0289757
0.0289757
0.0441657
0.0441657
0.0346788
0.0346788
0.0422854
0.0422854
0.0398741
0.0398741
0.0331612
0.0331612
0.02935
0.02935
0.0434919
0.0434919
0.0255744
0.0255744
0.0392029
0.0392029
0.0159567
0.0159567
0.0448511
0.0448511
0.0380453
0.0380453
0.0282722
0.0282722
0.0457237
0.0457237
0.0437168
0.0437168
0.043322
0.043322
0.045246
0.045246
0.0393281
0.0393281
0.0442773
0.0442773
0.0368594
0.0368594
0.0339597
0.0339597
0.0455526
0.0455526
0.0451024
0.0451024
0.0430249
0.0430249
0.0432105
0.0432105
0.0396462
0.0396462
0.043172
0.043172
0.0426933
0.0426933
0.0137181
0.0137181
0.0437442
0.0437442
0.0437073
0.0437073
0.0382507
0.0382507
0.0439133
0.0439133
0.0434067
0.0434067
0.0383698
0.0383698
0.0420488
0.0420488
0.0443808
0.0443808
0.0366986
0.0366986
0.042828
0.042828
0.03572
0.03572
0.0451388
0.0451388
0.041933
0.041933
0.044684
0.044684
0.0309645
0.0309645
0.0361449
0.0361449
0.0434154
0.0434154
0.0446341
0.0446341
0.0451996
0.0451996
0.0175637
0.0175637
0.0175637
0.040527
0.040527
0.0377993
0.0377993
0.0428344
0.0428344
0.0428987
0.0428987
0.0319734
0.0319734
0.0367253
0.0367253
0.028918
0.028918
0.0368837
0.0368837
0.015301
0.015301
0.015301
0.0449208
0.0449208
0.0423995
0.0423995
0.0445898
0.0445898
0.0384673
0.0384673
0.040029
0.040029
0.0457614
0.0457614
0.0358507
0.0358507
0.0447384
0.0447384
0.0447551
0.0447551
0.0453444
0.0453444
0.0410541
0.0410541
0.0413551
0.0413551
0.0434171
0.0434171
0.0310353
0.0310353
0.0419751
0.0419751
0.0432761
0.0432761
0.0349078
0.0349078
0.0420347
0.0420347
0.0269119
0.0269119
0.0391029
0.0391029
0.0429358
0.0429358
0.0419098
0.0419098
0.032453
0.032453
0.0369899
0.0369899
0.0433166
0.0433166
0.0448157
0.0448157
0.0408139
0.0408139
0.044024
0.044024
0.0351212
0.0351212
0.0453294
0.0453294
0.0426034
0.0426034
0.0427978
0.0427978
0.0185706
0.0185706
0.0450589
0.0450589
0.0386736
0.0386736
0.0374861
0.0374861
0.0413696
0.0413696
0.0444704
0.0444704
0.0310665
0.0310665
0.044216
0.044216
0.021628
0.021628
0.021628
0.0454955
0.0454955
0.0357666
0.0357666
0.0434149
0.0434149
0.0447246
0.0447246
0.0434438
0.0434438
0.0366718
0.0366718
0.0452214
0.0452214
0.0431376
0.0431376
0.0408964
0.0408964
0.0445859
0.0445859
0.0424501
0.0424501
0.0435513
0.0435513
0.0350124
0.0350124
0.0434476
0.0434476
0.0396011
0.0396011
0.0378712
0.0378712
0.0203941
0.0203941
0.034259
0.034259
0.030106
0.030106
0.0447082
0.0447082
0.0443504
0.0443504
0.0453521
0.0453521
0.0449934
0.0449934
0.0407578
0.0407578
0.0399315
0.0399315
0.0360782
0.0360782
0.0336092
0.0336092
0.0422369
0.0422369
0.0342738
0.0342738
0.038798
0.038798
0.0302167
0.0302167
0.0446404
0.0446404
0.0440904
0.0440904
0.0429328
0.0429328
0.0455868
0.0455868
0.0451995
0.0451995
0.0438027
0.0438027
0.0443015
0.0443015
0.0375121
0.0375121
0.0395582
0.0395582
0.0419974
0.0419974
0.0430869
0.0430869
0.0432127
0.0432127
0.042264
0.042264
0.0191409
0.0191409
0.0428779
0.0428779
0.0358518
0.0358518
0.042277
0.042277
0.0428115
0.0428115
0.0416419
0.0416419
0.0438006
0.0438006
0.0441077
0.0441077
0.0416182
0.0416182
0.0364869
0.0364869
0.0426892
0.0426892
0.0434632
0.0434632
0.0361845
0.0361845
0.0388136
0.0388136
0.0254361
0.0254361
0.0409232
0.0409232