/*--------------------------------*- C++ -*----------------------------------*\
  =========                 |
  \\      /  F ield         | OpenFOAM: The Open Source CFD Toolbox
   \\    /   O peration     | Website:  https://openfoam.org
    \\  /    A nd           | Version:  8
     \\/     M anipulation  |
\*---------------------------------------------------------------------------*/
FoamFile
{
    version     2.0;
    format      ascii;
    class       volScalarField;
    location    "0.5";
    object      nut;
}
// * * * * * * * * * * * * * * * * * * * * * * * * * * * * * * * * * * * * * //

dimensions      [0 2 -1 0 0 0 0];

internalField   nonuniform List<scalar> 
1924
(
0.00190669
0.00196436
0.00220613
0.00225674
0.00201843
0.00228436
0.00229757
0.00231402
0.00231487
0.00215283
0.00232786
0.00232521
0.00162862
0.00233875
0.00233782
0.00232884
0.00171159
0.00233595
0.00182155
0.0023427
0.00150351
0.00218082
0.00175354
0.0023384
0.0021893
0.00230347
0.00233628
0.00203074
0.00210787
0.00209745
0.00178208
0.002213
0.00195057
0.0016876
0.00205307
0.00179577
0.00224774
0.00211496
0.00203853
0.00176906
0.002278
0.00152074
0.00227511
0.00167506
0.00222893
0.00213405
0.00180532
0.00225904
0.00138865
0.00138077
0.00184035
0.00165645
0.00216004
0.00193083
0.00212529
0.00212886
0.0018063
0.00223067
0.0021291
0.00237923
0.00169352
0.00233354
0.00165594
0.0019719
0.00201099
0.00225341
0.00234019
0.00186636
0.00214754
0.00174776
0.00147609
0.00232837
0.00198038
0.00215716
0.00215299
0.00188309
0.00227517
0.00219053
0.00226273
0.00172488
0.00228603
0.00236406
0.00219393
0.00158383
0.00189884
0.00192047
0.00213091
0.00234704
0.00133082
0.00154388
0.0023478
0.00235258
0.0021766
0.00220453
0.00168516
0.00193565
0.00227725
0.00229554
0.00238517
0.00161339
0.00222892
0.00166082
0.00238667
0.00237828
0.00221742
0.00223087
0.00225428
0.00218401
0.00236249
0.00221847
0.0022864
0.00220387
0.00207331
0.00217816
0.00226181
0.00149484
0.00223513
0.00231718
0.0020679
0.00227221
0.00177175
0.000570799
0.00141767
0.00149325
0.0023344
0.00225506
0.00196678
0.00218558
0.00222963
0.000613931
0.00228653
0.00225461
0.000220915
0.00220431
0.001732
0.00225723
0.00217064
0.00220599
0.0023409
0.00207915
0.00218798
0.00233056
0.000147572
0.000157136
0.00228377
0.00193643
0.00220756
0.00160745
0.00233407
0.00205824
0.00215182
0.000286197
0.00188928
0.00229624
0.00229438
0.00226373
0.000569147
0.00216907
0.00229546
0.00024049
0.00216714
0.00202598
0.00229803
0.000581452
0.00203396
0.00227139
0.00230071
0.000427089
0.00226923
0.00226372
0.00203713
0.00231879
0.00221961
0.00237431
0.00219745
0.00210446
0.00212238
0.000289085
0.00179504
0.00232502
0.00226266
0.00231731
0.00222264
0.00230623
0.00138886
0.00191602
0.00196784
0.00231708
0.00227855
0.00220116
0.00214115
0.00232115
0.00229338
0.00232658
0.00233358
0.000291953
0.0023539
0.00213654
0.00219327
0.0020965
0.000365016
0.00194538
0.00229689
0.00233698
0.0020462
0.00228291
0.00234474
0.00193068
0.00171847
0.000142961
0.000593997
0.00227089
0.0023457
0.00233792
0.00232397
0.00222037
0.00230558
0.00215932
0.00234409
0.0021659
0.00222324
0.00220392
0.00231056
0.00234924
0.0023358
0.00235505
0.00230238
0.00224562
0.00235742
0.0021294
0.000320568
0.00236681
0.00221919
0.000296898
0.00237801
0.000164157
0.00234007
0.00235697
0.00232591
0.000298132
0.00231505
0.00225036
0.00233505
0.00197016
0.000348922
0.0017438
0.00234872
0.00224615
0.0022165
0.00222594
0.00202705
0.000520205
0.0023624
0.00229849
0.00227477
0.00234472
0.00228214
0.00222951
0.00223065
0.00235517
0.00228356
0.00233805
0.0023627
0.00223124
0.00221432
0.00211718
0.00150403
0.00219305
0.00212003
0.000362937
0.00209272
0.00213387
0.00207889
0.00227937
0.00237094
0.00228199
0.00234644
0.00237798
0.00230421
0.00218096
0.000404374
0.000217155
0.00235436
0.00237366
0.00174807
0.00219338
0.00230021
0.000529378
0.0023631
0.00226325
0.00234776
0.00205379
0.00238995
0.0023351
0.00140364
0.00205176
0.00234546
0.00193449
0.00216844
0.00233906
0.000307012
0.0023245
0.00232794
0.0022785
0.00235485
0.00232139
0.00152071
0.00232227
0.00224395
0.00224124
0.00185666
0.00204501
0.00237804
0.00214531
0.00228527
0.00156487
0.00228561
0.00236049
0.00235782
0.002326
0.00208199
0.00212396
0.00233065
0.00212474
0.00234467
0.00225717
0.00230153
0.00229004
0.00225828
0.00231087
0.00220581
0.00235047
0.00213278
0.00235159
0.00212723
0.0023904
0.00237529
0.00236356
0.00238045
0.00234503
0.00223918
0.00216505
0.00217671
0.00197304
0.00233953
0.00231971
0.000291818
0.00234639
0.00206672
0.0023155
0.00224856
0.000302954
0.000443666
0.00232727
0.00181056
0.00220455
0.0014023
0.00236397
0.00220508
0.00185225
0.00238887
0.00233384
0.00232226
0.00237248
0.00223348
0.00234934
0.00216307
0.00208909
0.00238313
0.00237164
0.00231388
0.00232922
0.00224754
0.0023191
0.0023254
0.000299888
0.00233451
0.0023329
0.00220306
0.00234022
0.00232793
0.00218005
0.00230675
0.00235807
0.00216876
0.00230844
0.00210212
0.00236994
0.00230497
0.00236007
0.000400201
0.0021393
0.00234087
0.00235706
0.00237329
0.000111425
0.00226525
0.00219009
0.00230857
0.00231386
0.00199018
0.00213158
0.00193314
0.00215256
0.000135327
0.002368
0.00229663
0.00235599
0.00221514
0.00225158
0.00239059
0.00212956
0.00236098
0.0023615
0.002377
0.00226415
0.00226736
0.002326
0.00198946
0.00228311
0.0023218
0.00211635
0.00228648
0.0018614
0.00222568
0.00231172
0.0022819
0.00200266
0.00216477
0.00234037
0.00236563
0.00225193
0.00235344
0.00210437
0.00237674
0.00232091
0.00230765
0.00149741
0.00236934
0.00221411
0.00219085
0.00228698
0.00236161
0.00195415
0.00234737
0.000123194
0.00237962
0.002103
0.00234108
0.00235919
0.00232546
0.00215433
0.002378
0.00231707
0.002274
0.00236929
0.0022979
0.00232952
0.00209352
0.00233054
0.00221701
0.00219104
0.00158709
0.00207111
0.00197231
0.00235916
0.00234908
0.00237629
0.00236747
0.0022478
0.00224682
0.00213609
0.00203809
0.00229206
0.00209458
0.0021935
0.00193688
0.00235941
0.0023446
0.00231666
0.00238301
0.00237328
0.00233762
0.00234815
0.00217982
0.00223702
0.00230199
0.00231764
0.00233152
0.00229225
0.00152176
0.00232346
0.00212488
0.00229211
0.00230925
0.00227555
0.00233856
0.00234683
0.0022912
0.00212506
0.00230526
0.00232688
0.00215343
0.00221756
0.00180943
0.00225958
0.00232149
0.00226767
0.00216163
0.00229441
0.00214069
0.00226293
0.00233846
0.00238133
0.00233853
0.00233716
0.00220631
0.00236434
0.0023698
0.00232242
0.00210122
0.00232371
0.00223088
0.00229119
0.00238622
0.00238519
0.00203977
0.00173856
0.00225878
0.00236393
0.00208519
0.00235634
0.00215189
0.0019082
0.00193637
0.0023264
0.00237261
0.00211818
0.00165235
0.00223813
0.00218422
0.00210062
0.00179479
0.0021113
0.00227821
0.0023024
0.00198819
0.00192577
0.00233327
0.00231432
0.00229724
0.0023066
0.0023148
0.00212331
0.00228164
0.00196372
0.00178988
0.0019226
0.00209831
0.00192626
0.00223085
0.00210738
0.00208535
0.00230814
0.00217023
0.00198681
0.00220902
0.0022994
0.00200306
0.00217474
0.00227011
0.00230248
0.00227539
0.00230297
0.00203878
0.00230368
0.00182536
0.00186996
0.00228856
0.00203144
0.0022097
0.00233133
0.00236686
0.00229803
0.00204394
0.00180029
0.00230349
0.00208505
0.00224285
0.00213702
0.00225829
0.00212124
0.000409649
0.00200129
0.0018869
0.00228657
0.00230205
0.00226814
0.00232475
0.002103
0.00187536
0.0023072
0.00236026
0.00188753
0.00215044
0.00235017
0.00238078
0.00215402
0.00201486
0.00213137
0.00225133
0.0023227
0.00189239
0.00228926
0.00219894
0.00233124
0.0023886
0.00198006
0.00203504
0.00200001
0.00227508
0.00222453
0.00230689
0.00223544
0.00236478
0.00200582
0.00182689
0.00233019
0.00239001
0.00196315
0.00232272
0.00228317
0.00226276
0.00208644
0.0021418
0.00194971
0.00228154
0.00200506
0.00228154
0.00227095
0.0022813
0.00227912
0.00217868
0.00227024
0.00226569
0.00232003
0.00222439
0.00231411
0.0022824
0.00214421
0.00213747
0.00227705
0.0021323
0.00238184
0.00184958
0.00227482
0.00213938
0.00212299
0.00226653
0.00201113
0.00203984
0.00186889
0.00200694
0.00224954
0.00227579
0.00188517
0.00224911
0.00232637
0.00213925
0.00216778
0.00219808
0.00217138
0.00157431
0.00229827
0.00231924
0.00223629
0.00236255
0.00231671
0.00196949
0.00191031
0.00228049
0.00228218
0.00230952
0.00229643
0.00224398
0.00236045
0.00228089
0.00197068
0.00226713
0.00187707
0.00209825
0.00234569
0.00230793
0.0022715
0.00215822
0.00230221
0.00195679
0.00204026
0.00218928
0.0022184
0.00218871
0.00213185
0.00227264
0.00182338
0.00205542
0.00227259
0.00226236
0.00227069
0.00226603
0.0021499
0.00215687
0.00193886
0.00226195
0.00198362
0.00226001
0.00238903
0.00226083
0.00216025
0.00230379
0.00165205
0.00200558
0.00231623
0.00214076
0.00189759
0.00231831
0.000268251
0.000132789
0.00201024
0.00195671
0.00224931
0.00226215
0.00201276
0.00203448
0.00220833
0.00229794
0.00225549
0.00228314
0.00226555
0.00230923
0.00214566
0.00204299
0.0022675
0.00216118
0.000295289
0.00231801
0.000400911
0.0021671
0.00192928
0.00215794
0.00224137
0.00223713
0.00226653
0.00235989
0.00191675
0.00199234
0.00238341
0.00188012
0.00206431
0.00198677
0.00231147
0.00189273
0.00227387
0.00230888
0.00220158
0.00222714
0.0019795
0.00225766
0.00218001
0.00194989
0.00226252
0.00231747
0.00226127
0.00210612
0.00225572
0.00187795
0.00225599
0.00216466
0.00225629
0.00195126
0.00225785
0.00214569
0.00205152
0.00235065
0.00212497
0.00234687
0.0018859
0.00231679
0.00226649
0.00227534
0.00208736
0.00201371
0.00218425
0.00227444
0.00225626
0.00219964
0.00217932
0.00225672
0.00187472
0.00226597
0.00218589
0.00160623
0.0020026
0.00224526
0.00182248
0.0020715
0.00231525
0.00186315
0.00231557
0.00226271
0.00217744
0.00188577
0.00224227
0.00210466
0.000346927
0.00218508
0.00197508
0.00229859
0.00201064
0.00224051
0.00208721
0.00217229
0.00236701
0.00229847
0.0020202
0.00228137
0.00223911
0.00219281
0.00228828
0.00226544
0.00200522
0.00231662
0.00209435
0.00218483
0.00224438
0.00221196
0.00224146
0.00201106
0.00229496
0.00220706
0.000119492
0.00231785
0.000422407
0.00225513
0.00224328
0.00146301
0.0021885
0.00225796
0.00220509
0.00230557
0.00219404
0.00235023
0.00227801
0.00201685
0.00202924
0.00231656
0.00226175
0.00217993
0.00218775
0.00208167
0.00187511
0.00229068
0.00230004
0.00226028
0.00183575
0.00216938
0.00226611
0.00208131
0.0022387
0.00202974
0.00205544
0.00219132
0.00219678
0.00216353
0.00234206
0.00219672
0.00182297
0.0020539
0.00215031
0.00032039
0.00226526
0.00170489
0.00219739
0.00230249
0.00183236
0.00226537
0.0022226
0.00226602
0.00232737
0.00228081
0.00228523
0.00220765
0.00211462
0.000350875
0.00229086
0.00224295
0.00224472
0.00222921
0.00231108
0.0021763
0.00231587
0.00206208
0.00183068
0.00219774
0.0020267
0.00223171
0.00221286
0.0022675
0.00207483
0.00224177
0.00226981
0.00223699
0.00180133
0.00222994
0.00016921
0.0020623
0.00227436
0.00209275
0.00223055
0.00220009
0.00187953
0.00183265
0.00231559
0.0022182
0.0020169
0.00220413
0.00208989
0.0020786
0.00237009
0.00234774
0.00225412
0.00220718
0.00230887
0.00222672
0.00218528
0.00226826
0.00183727
0.00230064
0.00219485
0.00226163
0.00227727
0.00189963
0.000240623
0.00219487
0.00190553
0.000443302
0.00226705
0.0022168
0.002269
0.00208484
0.00231525
0.00217396
0.00222725
0.000205065
0.00220327
0.00229387
0.000183615
0.00217051
0.000116524
0.00211032
0.00230662
0.00208563
0.00212908
0.00221001
0.00235371
0.00210307
0.00227043
0.00229043
0.00223015
0.0022414
0.00211562
0.00192602
0.00221545
0.00182414
0.00224443
0.00230793
0.00164248
0.0022647
0.00224923
0.00228998
0.00206043
0.00231325
0.00225049
0.00216391
0.00222111
0.00224026
0.00228386
0.00222722
0.00188449
0.00176048
0.00218506
0.00214111
0.00227326
0.00209887
0.00222873
0.00219637
0.00183968
0.00217353
0.00229625
0.00229996
0.0021353
0.00224203
0.00212314
0.00217343
0.0023054
0.00220671
0.00189974
0.00231265
0.00232448
0.00221178
0.00191745
0.00223798
0.00213863
0.00231102
0.0022681
0.00221484
0.00219307
0.00226837
0.00226267
0.00221506
0.00224285
0.00223134
0.00227366
0.00223109
0.000183077
0.00186618
0.00195157
0.00226536
0.00222164
0.00227617
0.00222945
0.00204043
0.00194608
0.00216295
0.00218953
0.00229285
0.00201769
0.00204288
0.00222754
0.0023319
0.00209297
0.00224031
0.00214829
0.0023117
0.0023492
0.00228725
0.00231006
0.00225458
0.00213328
0.00225542
0.00225643
0.00226803
0.0022346
0.00225661
0.00213961
0.0022481
0.0022723
0.00235274
0.00225373
0.00225863
0.0022799
0.00214041
0.00225988
0.00214679
0.00215706
0.00169438
0.00215375
0.00189525
0.00229891
0.00225428
0.00211255
0.00211094
0.00231208
0.00211702
0.00224311
0.00217404
0.00226119
0.00226669
0.000431904
0.00230943
0.00218908
0.00225114
0.000381279
0.00225812
0.00220105
0.00161951
0.00212099
0.00212626
0.00197255
0.00226577
0.00231016
0.00226187
0.0022103
0.00230492
0.000381166
0.00038537
0.00225407
0.00226046
0.00229818
0.00227646
0.00227054
0.00213803
0.0021319
0.00221758
0.00212195
0.000381712
0.00226271
0.00160048
0.00210536
0.00226176
0.00229584
0.00226086
0.00214555
0.0022888
0.000125775
0.000132808
0.0023571
0.00215657
0.00224969
0.00219348
0.00215121
0.00226109
0.00226204
0.00211852
0.00231014
0.00219581
0.00217554
0.00208235
0.00225419
0.00216996
0.000367598
0.00192115
0.00230672
0.00227958
0.0023043
0.00218618
0.00211451
0.00225784
0.00217588
0.00212727
0.00199898
0.00219895
0.00230791
0.000164987
0.00198793
0.00208131
0.00222186
0.00037698
0.00225638
0.00220854
0.000396757
0.000271663
0.00225843
0.00211403
0.00230366
0.00230175
0.00227306
0.00221447
0.00215071
0.00226856
0.00209718
0.00225093
0.00226079
0.000190448
0.000381791
0.00225204
0.000309717
0.00208035
0.00225242
0.00199083
0.00221536
0.00221544
0.00209994
0.00209357
0.0020872
0.0023546
0.00229824
0.00224023
0.0017599
0.00222455
0.00229169
0.00228272
0.00206897
0.00230318
0.00211019
0.00224508
0.00201654
0.000415825
0.00222074
0.0022628
0.00226113
0.000388306
0.00204066
0.00226076
0.00170142
0.000389492
0.0022939
0.00189411
0.00225807
0.00206356
0.00204355
0.00227203
0.00228323
0.00224448
0.0019954
0.0022551
0.00208233
0.00225224
0.00195057
0.00194136
0.00229159
0.00209589
0.00223643
0.00211644
0.00230148
0.00203467
0.00199935
0.00228898
0.00221376
0.00215386
0.000102819
0.000100359
0.0022573
0.00224827
0.00210401
0.00209387
0.00228357
0.00211925
0.00203131
0.0016509
0.000394739
0.00215555
0.00221445
0.00225788
0.00217234
0.00228832
0.00228507
0.00228457
0.00198046
0.00225902
0.00197454
0.00223598
0.00228253
0.00223827
0.00194159
0.00192101
0.00228664
0.00210538
0.00222731
0.00199959
0.000182618
0.00224532
0.00202589
0.00228334
0.00204996
0.00226099
0.000403031
0.002114
0.00185011
0.000503239
0.00223051
0.00227305
0.00206956
0.000203004
0.00187497
0.00220742
0.00198206
0.00196479
0.00208362
0.00195459
0.00217043
0.00225235
0.00210524
0.00203047
0.00193694
0.00199258
0.00224056
0.00228542
0.00224969
0.00198522
0.00203897
0.00177163
0.0022476
0.00223826
0.000394313
0.00227395
0.000400067
0.00225031
0.00227396
0.00221999
0.0022368
0.00223487
0.00209145
0.0022621
0.00187732
0.00224298
0.00197331
0.00223693
0.0022709
0.00223745
0.00209915
0.000180534
0.00225151
0.00219996
0.00185161
0.00224931
0.00222435
0.00195878
0.00224909
0.000181018
0.00194037
0.00222581
0.00225383
0.000182232
0.00186043
0.00219355
0.00212845
0.00224486
0.00189525
0.00223042
0.00222525
0.0003293
0.00222633
0.0022108
0.0022197
0.00208523
0.00221475
0.00018452
0.00222636
0.0021256
0.00190745
0.00223188
0.00224988
0.00193656
0.0022164
0.00223776
0.0020635
0.00209466
0.00206384
0.00225794
0.000174067
0.000180513
0.00202841
0.00196073
0.00211601
0.000202842
0.00220052
0.00220632
0.000371876
0.002234
0.00208609
0.00221707
0.00218923
0.000332254
0.000182592
0.0021039
0.0022029
0.000404747
0.000115622
0.000114267
0.00187915
0.00190755
0.00208734
0.00185235
0.00221987
0.00224733
0.00222987
0.00219657
0.00224523
0.00220574
0.000166388
0.00219956
0.000185838
0.000188622
0.00225798
0.00219598
0.00180551
0.000186108
0.00223117
0.00186545
0.00221683
0.000408158
0.00183321
0.00041277
0.00221349
0.0003791
0.001912
0.00171065
0.00041999
0.00220526
0.000404999
0.00219238
0.00217732
0.000364403
0.000427635
0.00208967
0.000434143
0.00208875
0.000301944
0.000438865
0.00207225
0.0015959
0.00207295
0.00209796
0.000271401
0.000189852
0.000441417
0.00222278
0.00196559
0.00221648
0.0022233
0.00210785
0.00217105
0.00208518
0.00219329
0.00210177
0.00217889
0.000406811
0.0021022
0.00166207
0.00218058
0.00206673
0.00219971
0.00197311
0.00205399
0.000196991
0.00178345
0.000441351
0.00218957
0.00214113
0.00218347
0.00206467
0.00217689
0.0018052
0.00207593
0.0021973
0.00019316
0.00206368
0.00216779
0.0017378
0.000438745
0.00198697
0.00205895
0.00205642
0.00216221
0.00216995
0.00040584
0.00217472
0.00218662
0.000400939
0.00216294
0.0022059
0.00039741
0.00208508
0.00209291
0.00220788
0.000440609
0.00206686
0.00219123
0.00218535
0.000395106
0.00215245
0.00205168
0.00208154
0.00217501
0.000163025
0.00217566
0.00195749
0.00219259
0.00221653
0.00215608
0.00204036
0.00180714
0.00220923
0.0016936
0.00221757
0.00171526
0.00215993
0.000186029
0.000443836
0.000432945
0.000195761
0.00214679
0.000395028
0.00211579
0.00206144
0.00168783
0.000365803
0.000188254
0.00157008
0.00214169
0.00208893
0.002139
0.00178983
0.0020289
0.00202928
0.000386122
0.00214362
0.00178073
0.00210573
0.00213106
0.0020444
0.0021185
0.00214108
0.00180964
0.0019753
0.000439045
0.00214772
0.00213342
0.00195434
0.00213555
0.00163889
0.000198822
0.00201677
0.000347286
0.000200361
0.00212038
0.000203533
0.0021127
0.00212247
0.000207648
0.00214171
0.00042965
0.000211753
0.00205783
0.00192333
0.000372726
0.000215253
0.000217822
0.00213723
0.00211512
0.00206582
0.00211761
0.00203599
0.00206364
0.00200235
0.00207986
0.000147996
0.000156917
0.000219224
0.0021056
0.00204651
0.00209073
0.000438927
0.00206171
0.000379507
0.000442846
0.00206653
0.00205146
0.000441491
0.000348241
0.00187697
0.00159511
0.000219222
0.000434798
0.00212009
0.0001807
0.00190379
0.00199403
0.00199896
0.00198377
0.00206943
0.000197865
0.000194688
0.00202948
0.00209259
0.000190874
0.00216054
0.000436553
0.00200295
0.00202335
0.000175671
0.000212246
0.000214265
0.000426959
0.0018782
0.00193144
0.00216107
0.0020067
0.00205603
0.00215356
0.0018657
0.0020489
0.00216506
0.00199138
0.000185333
0.00210748
0.00188219
0.00210197
0.000325146
0.00204765
0.00021859
0.00216654
0.0020753
0.000153825
0.000334092
0.00198194
0.00199016
0.00193083
0.0019504
0.000212033
0.00198566
0.000164269
0.00035313
0.000403351
0.00194174
0.00210474
0.00206976
0.0019757
0.00204297
0.00190209
0.000428506
0.00204892
0.000190889
0.000195944
0.00194891
0.000177635
0.00203059
0.00040266
0.00192377
0.00210004
0.00200152
0.00206531
0.00201121
0.00196904
0.00153077
0.0021083
0.000217524
0.000165154
0.00191466
0.000215572
0.000173486
0.00204358
0.00189555
0.00194007
0.00021889
0.00189504
0.000210465
0.000424567
0.00210482
0.00209787
0.000218372
0.000398293
0.00197828
0.000217315
0.00215337
0.0018386
0.000145843
0.00184625
0.00195541
0.00185961
0.000405065
0.00195921
0.00204739
0.000148207
0.000138595
0.00204312
0.00149994
0.00201408
0.00198208
0.00192775
0.00199225
0.00183634
0.00197234
0.000212807
0.00192438
0.00201178
0.00189498
0.00198763
0.00182036
0.00181679
0.000351476
0.000148645
0.00175711
0.00204898
0.00183039
0.00169414
0.00202503
0.00041184
0.00020904
0.00195026
0.00191625
0.000404284
0.00197953
0.00043268
0.000215838
0.00175977
0.0017518
0.00181234
0.00190403
0.000194714
0.000192075
0.00198942
0.000392477
0.000416876
0.000394152
0.00164813
0.00171803
0.00173692
0.00188833
0.00183325
0.000310241
0.000134137
0.00200778
0.00165621
0.00185725
0.000419637
0.000208704
0.00194601
0.00192236
0.00199586
0.00185197
0.00189843
0.00176338
0.00191692
0.000380939
0.000188295
0.0017527
0.000405097
0.0019493
0.000197867
0.0017537
0.000201819
0.000422466
0.000207759
0.00182766
0.000196137
0.00188236
0.000384817
0.00167457
0.00190261
0.000192494
0.000361951
0.00160254
0.000419115
0.000408155
0.000204784
0.00186029
0.000165482
0.0018018
0.000185437
0.00151015
0.0018191
0.00166744
0.000183018
0.000196073
0.000408157
0.000394577
0.0004201
0.000373911
0.000204505
0.00017507
0.00166971
0.00174254
0.00176274
0.00183176
0.000175084
0.000159143
0.000334089
0.00149478
0.00168389
0.0016212
0.00175088
0.00184642
0.00175352
0.00166599
0.000161432
0.000355304
0.00158561
0.000196296
0.000337197
0.000151269
0.000320759
0.00153545
0.00159975
0.000116878
0.000243118
0.000105864
9.71835e-05
0.000271409
0.000135253
0.000189587
0.000376042
0.000206332
0.000393592
0.000198101
0.000209727
0.00035771
0.000179886
0.000213308
0.000427038
0.000364753
0.000170495
0.000203094
0.000161611
0.000350598
0.000179332
0.000379759
0.000132307
0.000125063
0.000138932
0.000320245
0.000159495
0.000170027
0.000340434
0.000188007
0.0015188
0.00224018
0.00166409
0.00178719
0.00172586
0.00033815
0.000154039
0.00204128
0.00174518
0.00195591
0.000130274
0.00156532
0.00210455
0.0017633
0.00156989
0.000314509
0.000319427
0.00225562
0.00200663
0.000172434
0.000113248
0.000175015
0.00211602
0.00140396
0.00207362
0.00211879
0.000184657
0.0015966
0.00205265
0.00207516
0.000102068
0.000126667
0.000175139
0.000152289
0.00020103
0.000148632
0.000166611
0.000158491
0.0020381
0.000370502
0.00196695
0.000119329
9.90779e-05
0.000110841
0.000386828
0.0020231
0.00210295
0.000132334
0.000109684
0.000116781
0.00200801
0.00205443
0.000296444
0.00167755
0.00225021
0.00152149
0.00140584
0.000323355
0.000139314
0.000457201
0.000307245
0.000475727
0.000331554
0.000305321
0.000316798
0.000102484
9.95479e-05
0.00200171
0.002053
0.00135979
0.00226069
0.000177426
0.000250098
0.000286429
0.00132825
0.00143502
0.000266476
0.0020265
0.00137764
0.00145651
0.00167591
0.00010947
0.00141212
0.00147844
0.00142296
0.000285166
0.00230387
0.00145804
0.00205552
0.000114957
0.00151185
0.00232448
0.00146622
0.00022037
0.000140898
0.00167703
0.00203958
0.00233659
0.00139295
0.00133611
0.000120751
0.00206878
0.00230661
0.00139281
0.00231192
0.00205116
0.000290149
0.00207798
0.0023173
0.00161754
0.00208916
0.00164671
0.00148118
0.00145729
9.483e-05
0.00206678
0.000262589
0.00012611
0.00232911
)
;

boundaryField
{
    patch0
    {
        type            nutkWallFunction;
        Cmu             0.09;
        kappa           0.41;
        E               9.8;
        value           nonuniform List<scalar> 
4010
(
0.000178561
0.000178561
0.000217893
0.000217893
0.000257336
0.000257336
0.000259436
0.000259436
0.000234195
0.000234195
0.000261285
0.000261285
0.00026649
0.00026649
0.000268088
0.000268088
0.000268173
0.000268173
0.000251928
0.000251928
0.000269527
0.000269527
0.000269266
0.000269266
0.00015246
0.00015246
0.000270692
0.000270692
0.000269528
0.000269528
0.000268352
0.000268352
0.000158503
0.000158503
0.000270404
0.000270404
0.000171142
0.000171142
0.000271124
0.000271124
0.000142101
0.000142101
0.000209107
0.000209107
0.000163691
0.000163691
0.000270673
0.000270673
0.00020118
0.00020118
0.000226727
0.000226727
0.000237936
0.000237936
0.00022736
0.00022736
0.000245859
0.000245859
0.000245409
0.000245409
0.000164885
0.000164885
0.000212295
0.000212295
0.000181647
0.000181647
0.000157432
0.000157432
0.000238967
0.000238967
0.00016752
0.00016752
0.000215004
0.000215004
0.00024682
0.00024682
0.000238783
0.000238783
0.000163304
0.000163304
0.000219103
0.000219103
0.000143639
0.000143639
0.000224366
0.000224366
0.00015837
0.00015837
0.000259403
0.000259403
0.000248085
0.000248085
0.000177395
0.000177395
0.000262524
0.000262524
0.000133699
0.000133699
0.00013249
0.00013249
0.000212508
0.000212508
0.000153986
0.000153986
0.000204323
0.000204323
0.000230129
0.000230129
0.000196471
0.000196471
0.000249062
0.000249062
0.000170515
0.000170515
0.000259528
0.000259528
0.000249142
0.000249142
0.000272921
0.000272921
0.000161274
0.000161274
0.000267371
0.000267371
0.000158771
0.000158771
0.000231062
0.000231062
0.000237642
0.000237642
0.000261982
0.000261982
0.00026213
0.00026213
0.000172732
0.000172732
0.00025018
0.00025018
0.00017388
0.00017388
0.000146308
0.000146308
0.000266423
0.000266423
0.000232538
0.000232538
0.000251826
0.000251826
0.000251335
0.000251335
0.000175621
0.000175621
0.000264193
0.000264193
0.000255354
0.000255354
0.000262958
0.000262958
0.000166218
0.000166218
0.000265202
0.000265202
0.000266948
0.000266948
0.000255642
0.000255642
0.00014859
0.00014859
0.000177102
0.000177102
0.000176867
0.000176867
0.000249231
0.000249231
0.000270907
0.000270907
0.000128778
0.000128778
0.000147299
0.000147299
0.000253692
0.000253692
0.000268505
0.000268505
0.000252259
0.000252259
0.000255561
0.000255561
0.00015827
0.00015827
0.00023001
0.00023001
0.000264419
0.000264419
0.000266196
0.000266196
0.000271279
0.000271279
0.000155162
0.000155162
0.000259822
0.000259822
0.000155426
0.000155426
0.000271681
0.000271681
0.000271691
0.000271691
0.000257135
0.000257135
0.000259624
0.000259624
0.000244745
0.000244745
0.000202719
0.000202719
0.000271383
0.000271383
0.000257305
0.000257305
0.000265343
0.000265343
0.000256466
0.000256466
0.000242374
0.000242374
0.00025416
0.00025416
0.000262883
0.000262883
0.00014156
0.00014156
0.00026049
0.00026049
0.000256231
0.000256231
0.00021019
0.00021019
0.000263911
0.000263911
0.000166524
0.000166524
5.95589e-05
5.95589e-05
0.000135699
0.000135699
0.000142119
0.000142119
0.000267644
0.000267644
0.000253625
0.000253625
0.000186409
0.000186409
0.00025485
0.00025485
0.000258605
0.000258605
6.35043e-05
6.35043e-05
0.000265352
0.000265352
0.000253837
0.000253837
2.46838e-05
2.46838e-05
0.000256907
0.000256907
0.000160364
0.000160364
0.000261608
0.000261608
0.000253462
0.000253462
0.000251752
0.000251752
0.000270941
0.000270941
0.000243885
0.000243885
0.000255386
0.000255386
0.000260205
0.000260205
1.85856e-05
1.85856e-05
1.85856e-05
1.81852e-05
1.81852e-05
1.81852e-05
0.000262504
0.000262504
0.000180785
0.000180785
0.000248254
0.000248254
0.000155931
0.000155931
0.00025545
0.00025545
0.000233808
0.000233808
0.000251008
0.000251008
3.17384e-05
3.17384e-05
3.17384e-05
0.000180199
0.000180199
0.000265963
0.000265963
0.000262038
0.000262038
0.000253991
0.000253991
5.93963e-05
5.93963e-05
0.000253653
0.000253653
0.000266237
0.000266237
2.79247e-05
2.79247e-05
0.000253039
0.000253039
0.000187016
0.000187016
0.00026641
0.00026641
6.05686e-05
6.05686e-05
0.000222841
0.000222841
0.000252114
0.000252114
0.000248471
0.000248471
4.5731e-05
4.5731e-05
0.000263612
0.000263612
0.000252367
0.000252367
0.000236399
0.000236399
0.000268113
0.000268113
0.000258434
0.000258434
0.000270942
0.000270942
0.000256591
0.000256591
0.000199889
0.000199889
0.000248287
0.000248287
3.22946e-05
3.22946e-05
0.000168371
0.000168371
0.000269086
0.000269086
0.000213371
0.000213371
0.00023751
0.00023751
0.000258781
0.000258781
0.000256496
0.000256496
0.000133652
0.000133652
0.000204894
0.000204894
0.000184234
0.000184234
0.000260177
0.000260177
0.000264547
0.000264547
0.00025656
0.00025656
0.000212039
0.000212039
0.000268833
0.000268833
0.000266034
0.000266034
0.000269238
0.000269238
0.0002653
0.0002653
3.23194e-05
3.23194e-05
3.23194e-05
0.000263598
0.000263598
0.00019895
0.00019895
0.000204124
0.000204124
0.000195368
0.000195368
3.88449e-05
3.88449e-05
0.000212842
0.000212842
0.00024794
0.00024794
0.000270461
0.000270461
0.000238213
0.000238213
0.000221274
0.000221274
0.000271105
0.000271105
0.000181585
0.000181585
0.000166375
0.000166375
1.62348e-05
1.62348e-05
1.62348e-05
6.17494e-05
6.17494e-05
0.000245952
0.000245952
0.000271432
0.000271432
0.000260529
0.000260529
0.000260816
0.000260816
0.000258533
0.000258533
0.000230912
0.000230912
0.000206367
0.000206367
0.000271199
0.000271199
0.000252763
0.000252763
0.000251238
0.000251238
0.000256684
0.000256684
0.000249143
0.000249143
0.000271778
0.000271778
0.00027035
0.00027035
0.000263517
0.000263517
0.000266933
0.000266933
0.00026109
0.00026109
0.000272156
0.000272156
0.000198143
0.000198143
3.48052e-05
3.48052e-05
0.00025591
0.00025591
0.000206227
0.000206227
3.21985e-05
3.21985e-05
0.000270336
0.000270336
1.9416e-05
1.9416e-05
1.9416e-05
0.000270836
0.000270836
0.000272584
0.000272584
0.000267486
0.000267486
3.29404e-05
3.29404e-05
3.29404e-05
0.000230055
0.000230055
0.000218205
0.000218205
0.000270324
0.000270324
0.000184775
0.000184775
3.86624e-05
3.86624e-05
0.000164432
0.000164432
0.000271731
0.000271731
0.000261447
0.000261447
0.000258127
0.000258127
0.000259066
0.000259066
0.000235577
0.000235577
5.47171e-05
5.47171e-05
0.000272581
0.000272581
0.000248257
0.000248257
0.000264161
0.000264161
0.000271279
0.000271279
0.000224404
0.000224404
0.000206922
0.000206922
0.000251995
0.000251995
0.000272411
0.000272411
0.000257948
0.000257948
0.000269922
0.000269922
0.000270543
0.000270543
0.000259676
0.000259676
0.000207466
0.000207466
0.000247443
0.000247443
0.000143123
0.000143123
0.000255632
0.000255632
0.000197444
0.000197444
4.28722e-05
4.28722e-05
0.000194876
0.000194876
0.000242425
0.000242425
0.000200442
0.000200442
0.000212067
0.000212067
0.000265444
0.000265444
0.000264766
0.000264766
0.000271502
0.000271502
0.000272455
0.000272455
0.000252258
0.000252258
0.000203571
0.000203571
4.312e-05
4.312e-05
2.46264e-05
2.46264e-05
2.46264e-05
0.000254635
0.000254635
0.00027401
0.00027401
0.000164843
0.000164843
0.000255718
0.000255718
0.000266711
0.000266711
5.5545e-05
5.5545e-05
0.000273263
0.000273263
0.000218557
0.000218557
0.000271098
0.000271098
0.00024043
0.00024043
0.000275392
0.000275392
0.000270291
0.000270291
0.000133624
0.000133624
0.000225957
0.000225957
0.000271332
0.000271332
0.000177776
0.000177776
0.000253042
0.000253042
0.000270676
0.000270676
3.37908e-05
3.37908e-05
3.37908e-05
0.000266328
0.000266328
0.000269571
0.000269571
0.000221827
0.000221827
0.000272404
0.000272404
0.000264598
0.000264598
0.000145036
0.000145036
0.000268984
0.000268984
0.000208193
0.000208193
0.000260716
0.000260716
0.000172591
0.000172591
0.000226117
0.000226117
0.000274509
0.000274509
0.000196305
0.000196305
0.000265212
0.000265212
0.000148274
0.000148274
0.000257785
0.000257785
0.000272991
0.000272991
0.000272275
0.000272275
0.000258696
0.000258696
0.000243632
0.000243632
0.00019524
0.00019524
0.000269577
0.000269577
0.000215753
0.000215753
0.000235686
0.000235686