/*--------------------------------*- C++ -*----------------------------------*\
  =========                 |
  \\      /  F ield         | OpenFOAM: The Open Source CFD Toolbox
   \\    /   O peration     | Website:  https://openfoam.org
    \\  /    A nd           | Version:  8
     \\/     M anipulation  |
\*---------------------------------------------------------------------------*/
FoamFile
{
    version     2.0;
    format      ascii;
    class       surfaceScalarField;
    location    "0.5";
    object      phi;
}
// * * * * * * * * * * * * * * * * * * * * * * * * * * * * * * * * * * * * * //

dimensions      [0 3 -1 0 0 0 0];

internalField   nonuniform List<scalar> 
2805
(
8.8209e-05
0.000115996
-0.000204205
0.00015614
-6.79315e-05
-0.000107605
-0.000861033
0.000968638
0.000525271
-0.000632876
0.00011938
3.67602e-05
-0.000558715
0.00108399
0.000297263
-0.000855978
-0.00109269
0.00138996
-1.90609e-05
-0.00107363
-0.00112922
0.000268188
-0.00160322
0.00158416
-1.18204e-05
-0.0015914
0.000271264
-0.000704523
0.000433259
-0.00159567
0.00158385
0.000681445
0.00114665
-0.0018281
0.00176636
-0.00108492
0.00101753
-0.000746268
-0.000288585
-0.00130709
0.000477298
-0.000361303
-0.00161804
0.00132945
0.00073024
-0.000437578
-0.000292662
-0.00152087
0.00278198
-0.00126112
-0.00140569
0.00139379
1.18972e-05
-0.000492111
-0.00112592
-0.00231381
0.000792945
-0.00178323
0.00179498
-1.17545e-05
-0.00147038
-0.00031285
0.00155753
-0.000475731
-0.0010818
-0.000275486
0.000254371
2.11153e-05
-0.000657811
7.6954e-05
0.000580857
-0.000677384
-0.000728306
-0.00131972
-0.000994095
0.000396025
-0.000461054
6.50289e-05
-4.07307e-05
0.00105826
0.000786173
0.000771355
-0.0010442
0.00243799
-0.00214974
0.000830024
-0.000379017
0.000103532
-0.000523993
-0.000133818
-0.000718114
-0.000710067
-0.00143967
-5.16459e-05
0.000781885
0.00108491
0.00145432
-0.00144242
-0.000161255
0.000834317
-0.000673061
-0.000386299
-0.000138119
0.000524418
-0.000413312
0.00080412
-0.000390808
0.000548797
-0.000105958
-0.00044284
-1.12211e-05
-0.0010525
0.00106372
-0.000355187
0.000517498
-0.000162311
0.000837917
-0.00199389
0.00115597
-0.000756169
0.000978952
0.00180303
-5.58154e-06
0.0008435
-0.000422794
0.00051632
-9.35252e-05
-0.000343048
6.39862e-05
0.000387541
0.00109391
-0.00070637
-0.00178708
0.00147819
0.000308893
-0.000275487
0.00172981
0.00119991
0.000566455
0.00136337
-0.00163885
0.000200245
-0.000691428
0.000491184
-0.00018091
0.000175329
-0.000244094
0.000138136
0.000338024
-0.000901816
0.000563792
0.000547837
-0.00159203
-0.000131928
1.08943e-05
-0.00200478
0.000374772
-0.000115496
-0.000259276
0.00184889
-0.000648985
-0.000323748
-0.000524269
0.000601224
1.82337e-06
-0.000526093
9.89853e-05
-0.00013047
3.14847e-05
0.000242657
-0.000486752
-0.000538805
0.000540628
-0.000845824
0.000402984
0.00137426
0.00128481
-0.00153232
0.000247502
0.000480727
-0.0019511
-0.000722909
0.000476695
0.000246213
-0.000495926
5.83476e-05
0.00019182
0.00150069
-0.00095285
0.000618181
0.00226902
-0.00112237
-0.000366408
-3.49652e-05
0.000409737
0.00191236
-0.00157434
-0.00113116
0.00161189
-0.000560913
-8.28783e-05
-0.000432851
0.000515729
0.000545161
-0.000580126
-9.47008e-05
-8.621e-05
-9.31737e-05
0.000335831
0.00139844
-0.000113623
-0.00277467
0.000987585
0.000556065
-0.00045708
-0.000688148
0.000894723
-0.000206575
4.9235e-05
-0.00220795
-0.000566717
0.000713541
-0.00184471
6.41246e-05
-0.000147003
-0.00103751
0.000444213
0.000593294
-0.000889284
0.00012949
0.000759794
-0.000448988
0.000513113
0.000280047
0.00119814
-0.000993764
-0.000619876
0.000526702
0.000674425
-0.000806354
-0.000259637
0.000421743
-0.000702377
0.000280634
-0.000357766
-0.000488058
-0.000250888
0.000309236
0.00028049
-0.00040065
-0.000684269
0.00192306
0.000287778
-0.00221084
-0.000844518
-0.000148588
0.000340408
-0.00171842
0.00165763
6.07841e-05
0.000224836
0.000158849
-0.000745983
-0.000155833
0.000573002
0.000117331
-0.000690333
0.000111419
-0.000241889
0.000316998
-0.000855803
-0.000319338
-0.000555927
0.00137042
-0.000814498
1.90674e-05
-0.000638943
5.43893e-06
-0.000511025
0.000465796
4.52298e-05
-0.000301165
-0.000706934
0.000380799
-0.000527802
0.000676864
-0.000573332
0.00104266
-0.00153478
0.000511719
0.000756317
0.00110291
-0.000251515
0.000251515
0.000682789
-0.000682789
-0.000915338
0.00119583
-0.000844269
0.000288342
0.000124014
0.000440569
0.00102294
-0.000742895
0.00115853
0.000764533
-4.15445e-05
0.00051824
-0.00171842
1.96549e-05
9.17638e-05
-0.00111051
0.00111595
0.000168648
-0.000381982
0.000499313
0.0014924
0.000165229
-0.000779907
-0.000723245
0.000742312
-0.000526484
0.000560336
-3.38518e-05
-0.000498555
-0.000203822
-0.000479541
8.53204e-05
-0.00173995
2.15372e-05
-0.000113814
0.000400356
-0.000286542
-0.000309534
0.000653558
-0.00103554
0.000510997
0.000981406
-0.000269066
-0.000575452
-0.00084714
-5.78758e-05
-0.000403178
-0.00137009
0.00153874
-0.000527314
-0.000510192
0.00170112
0.000413268
-0.000428936
-0.000115957
0.000544893
8.23032e-05
-8.71572e-06
-0.00025056
0.0010912
0.00134679
-0.00152995
0.00161527
4.59827e-06
0.000807792
-0.000812391
-0.00143886
0.00103821
-0.000854687
0.000241309
0.000613378
-0.000292801
0.000946358
-9.89895e-05
-0.000953508
0.00114973
-0.000345609
0.000328385
-0.00030873
0.000849343
0.000571032
-0.00142037
-0.000908009
-0.000842532
0.00063871
-0.000284456
0.00040847
1.98707e-05
5.76524e-05
-0.000780897
8.78558e-06
0.00118736
-0.00148016
-0.00173995
0.000578447
0.00139374
-0.00197219
-0.000692291
0.000263355
-0.000295845
-0.000396445
-0.000646966
0.000910321
0.000747818
0.000426657
-0.000736191
0.00172183
-0.00170196
0.000853941
-0.00185801
0.0018668
-0.00022698
0.000555365
0.000532333
0.000465796
-0.00176686
2.69025e-05
-8.73453e-05
0.000774349
-0.00187189
0.00109754
-0.000218549
0.00140591
0.00114948
0.000761211
-0.00049434
0.00151728
-0.000400413
-0.000136179
-0.000513373
-0.000342431
9.89006e-05
-0.000280271
-0.000608883
-0.0012119
0.00198625
-0.000117798
-0.000240975
0.00163472
-0.000862183
0.000919836
-5.39356e-05
-0.000676973
0.000730909
0.00174501
-0.00196355
0.000297908
-0.000944874
0.000561549
-4.52298e-05
0.00235305
-0.00189123
-0.000461822
0.000511947
0.00206784
-0.00230882
0.000560336
-0.000473709
-0.00139818
-0.00209745
0.00196127
0.000693994
-0.00130288
-0.00176686
0.000190428
-0.00162929
-0.000111592
0.000965533
-0.00155315
0.00107944
0.000251192
-0.000478171
0.000800465
3.38518e-05
-4.77925e-05
0.00182766
-0.00194546
0.000749099
-0.00031406
-0.000581249
-0.00105198
-0.00118711
-0.000579749
-0.000226072
0.00197108
-0.000823536
-0.000257815
-0.000650194
0.000587005
-0.00179891
-0.000963744
0.000951989
-0.000796473
-0.000458278
0.00125475
-0.000297545
-0.00026979
0.000648813
-0.000786169
0.00140449
0.000296634
0.000447151
-0.00165447
0.000660379
-0.000120851
-0.000405242
0.000962272
-0.000180387
6.51304e-05
-0.000575323
-0.000573066
-0.000642322
-0.000827262
0.00112517
-0.000155359
0.00012124
0.0012075
-0.000239072
-0.000968424
0.00126843
0.00108462
-0.00069092
-0.000841395
-0.000361605
3.1038e-05
0.0020368
0.00029241
-0.000432927
0.000599231
-0.00118711
2.11312e-05
0.00201029
-0.00223636
5.8085e-05
0.000282323
-9.78053e-06
-0.000852403
-0.00137042
0.000183319
-0.00235105
0.00208126
-0.000908065
0.00102861
-0.00181478
-3.68418e-05
-9.69762e-05
0.00251583
-0.00248479
0.000111799
-0.00150998
0.000146925
0.000104474
0.000295882
-0.00142142
0.00200842
-0.000631669
0.00088286
-0.000448242
-0.00168711
-0.00101047
-0.000112498
-0.00144065
0.000525704
-0.00102004
0.00192065
-0.00228226
0.00125557
0.000140634
-0.00139621
0.000792127
0.000170145
-0.00124199
0.00112949
0.000749217
-0.000953332
0.000507572
0.0016922
-0.000533668
-0.000293684
0.00230397
0.00228517
-0.00197768
-0.000307485
-0.00103871
0.00122539
-0.000163577
-0.000430402
-0.00093494
0.00124233
-0.000157693
0.000379041
-0.0012063
0.000604804
0.000658249
-0.000553775
0.00129904
-0.00161189
0.000105977
-0.00082482
0.000718842
0.000241414
0.0010165
0.000116224
-0.00134051
0.00133073
0.000532607
-8.2922e-05
0.000646714
0.000582172
0.00170299
-0.000952806
0.000144787
-0.000487219
0.000364366
0.00215146
0.00157732
0.0010819
-0.00201684
0.00207132
-0.002365
-0.00120998
-0.000570995
0.000125275
0.00262076
-0.00182782
0.000260572
-0.000892241
-0.00141118
-1.02382e-05
-0.000548387
-0.000100597
0.000603113
-0.000758947
-0.000450315
0.00214251
0.00243138
-0.00134646
-0.00107858
0.000792034
0.000251173
-0.00176115
-0.000199362
0.000129291
-0.000710541
-0.000522402
0.00117298
-0.000650574
-0.00251576
0.00208535
-0.000585408
0.00133463
0.000115957
-0.000210657
0.00283092
-0.00246656
-0.000440449
-0.00124666
-0.00118948
0.00113915
-5.45241e-05
0.000776904
0.000656816
0.000643084
-0.000888076
0.00126712
-0.000396384
0.0024677
-0.00115446
0.000162818
-0.0014048
-0.000178041
0.00184652
-0.00181463
0.00200506
0.00208626
-0.000474368
0.00025056
-9.17115e-05
-0.00185163
-0.00183833
0.00250085
-0.00184048
0.000439383
0.00016373
-0.000109004
-0.000446031
-0.00072701
0.00179304
-0.000673697
-0.000958766
0.00112158
-0.000260455
0.00105623
0.00112252
-0.00136003
0.00257042
-0.00198825
0.000907705
0.00147313
-0.000826415
0.00163339
-0.00278784
0.00220318
-0.00125119
0.000673035
-0.00040862
-0.000931891
-0.000784866
-0.000368655
-0.000475615
0.000196659
-0.000644901
-0.000567575
0.000828147
-5.73363e-05
0.000510997
0.00101774
0.000559581
8.10035e-05
-0.00112573
0.00104473
0.000714183
0.000856718
0.000556271
0.00227465
0.00092637
0.00164405
-0.000278077
-0.00223768
0.000601245
0.00193627
-0.00233265
-0.000897656
0.00142336
0.000250909
-0.000941829
0.000746781
-0.00199344
0.00141562
-0.00099994
-0.000415684
0.000642926
-0.00101437
0.000476644
-0.00136472
-0.000760392
0.000683498
0.00244249
-0.00166559
0.000512283
-0.00170176
-0.000313579
-0.000725132
-0.000665697
0.000568721
0.00259514
-0.00195206
0.00172797
-0.000323483
0.000963215
-0.00057391
0.00149477
0.00171253
-0.000839876
-0.000872649
-0.000731615
0.00125361
-0.000892521
0.00137283
-7.76169e-05
-0.00129521
-0.0021866
0.000602017
0.000581054
0.00230048
-0.00117797
-0.00017915
0.000506248
-0.000210367
0.00128258
-0.00111885
0.00266977
-0.0021135
-0.00029056
-0.000488501
0.0015805
-0.000524277
-0.000800123
0.000606899
0.00212482
-0.00153668
0.00112806
0.00104929
0.0015483
0.000395815
-0.00135458
-0.00119952
-0.000652103
0.00037882
0.00133371
-0.000935246
0.000826242
0.000273824
-0.000844819
0.00260981
-0.00193678
0.000384162
0.000841225
0.00114335
0.000464632
-0.00103221
0.000754087
0.00156091
-0.000846725
-0.000576304
0.00251257
-0.000105337
-0.000550348
0.002477
-0.00162029
0.00246896
-0.00154259
0.000357051
-0.000514744
-0.00072992
-0.00113228
0.00160893
-0.000436717
-0.00128317
0.000959425
-0.00232053
0.00204245
0.00109449
0.00018809
-0.00133015
0.000545284
-0.00209797
0.00136635
-0.000183313
0.000442058
0.00065775
0.000811416
0.00244659
-0.00119298
0.000593454
-0.00240809
0.00193317
-0.000438394
-0.00116598
0.00154297
0.00160969
0.00162909
-0.000213052
0.000956873
-0.00197124
0.000364461
-0.00112485
0.000159245
0.000595515
0.0003677
0.00126862
0.000266863
0.000391386
-0.000744888
-0.00199965
-0.000783665
0.00261242
-0.00201041
-6.27702e-05
-0.000182962
-0.000714694
-0.00136725
-0.000626194
0.00260488
-0.00155559
0.00260566
-0.00199876
0.000697801
-0.00159032
0.000340153
-0.000786184
-0.000577368
7.12386e-05
-0.000183998
0.000981645
-0.000227559
0.000134921
0.000675647
-6.35863e-05
-0.0022033
-0.000503908
0.00070035
0.000633356
-0.00201935
0.000411063
-0.000984973
-0.000656781
0.0022837
0.00208787
0.000365258
-0.000625713
0.000514782
0.00121503
0.00098459
0.0016024
-0.00217871
0.000748456
0.000394896
-0.000498506
-0.00182202
0.00106307
-2.96649e-05
0.00153035
-0.000421203
0.000885835
-0.000571011
0.00101307
-0.0009663
-0.00152991
0.000397631
0.00246292
-0.00165151
0.0026212
-0.00196345
0.00041185
-0.000144987
0.000173371
0.00120089
-0.000304749
0.000581
-0.00131092
0.00268923
-0.00107955
-0.000518017
-0.000147679
-0.000837487
0.000146059
-0.00100846
0.00119655
-0.000958059
-0.000578623
0.00149625
-0.000746697
0.000563383
-0.00108401
0.00125702
0.000372067
0.00285613
-0.00158751
0.00138596
0.00160598
0.00123214
-7.61648e-05
-5.91708e-05
0.000450557
-0.000714452
0.000452517
0.00144881
-0.000299225
-0.000378997
0.00055096
-0.00195279
-0.000433756
0.00052926
-0.000160966
0.000622435
-0.000543853
0.00107889
0.00130055
-0.000129689
0.000200928
0.000468692
-0.000759252
0.000363736
-0.000228815
4.77836e-06
0.00134201
0.000765377
0.00106774
-0.00181262
0.00163502
-0.00134725
0.00261471
-0.00193907
-0.0011863
0.00134555
-0.000117948
-0.000357248
-0.000359361
0.000534689
0.0013884
-0.00148899
-0.000482251
0.00165284
-0.00210315
0.000559287
-0.00113665
-0.0004285
0.00267058
-0.00168599
0.00189038
-8.05725e-05
-0.00056175
0.000872776
0.00112473
-0.000522586
-0.000207275
-0.000997817
0.000272684
4.60943e-06
-0.000919156
0.00131405
0.000103296
1.26603e-05
-0.00211518
-0.000645035
0.00224744
-0.00106926
0.000231773
0.00169366
-0.000630591
0.00177051
0.000136772
0.00047446
-0.000911177
-0.000588825
-0.00136397
0.00286002
-0.00120718
0.00101907
5.41483e-06
0.00153513
-0.000466545
-0.000699436
0.000651265
0.00117538
2.11659e-05
-0.000201085
0.00072595
-0.00114715
0.000128568
0.000406121
0.000261194
-0.000115134
0.000833997
-0.00149078
-0.000425686
-0.000544373
0.00262616
-0.00217365
-0.00223239
0.00126609
-0.000149486
0.000156803
0.00144918
-1.09186e-05
0.00241142
-0.000107006
0.00149296
-0.00161116
0.00110725
0.00324733
-0.00175108
-0.000266908
0.00122335
0.00206573
0.000231864
0.00165982
0.000447078
-0.00206176
0.000982211
-0.000476924
-0.000456661
-0.000633391
0.000254394
0.00234211
-0.00171967
0.00310794
-0.0018074
-0.00127181
0.00108885
-0.0019675
-5.18548e-05
0.000687095
-0.00186978
0.00246323
-0.000982869
-0.000351911
0.00180072
-0.000432463
0.00231149
0.00149882
-0.000270427
-8.68216e-05
0.00172559
-0.000411537
-0.000311725
0.00142195
0.00152802
-0.00176293
-0.000198803
0.0015872
-0.000157021
0.000740924
-0.00128478
-0.000499241
-0.000109834
0.00262714
-0.00160807
-0.000265614
-0.00011328
0.00200366
0.00171152
0.00246782
-0.00181655
0.000599173
-0.00103293
0.00079763
0.000745341
-0.00196208
-0.000395731
-0.00235033
-0.00199617
0.000912163
2.98741e-05
0.00109485
2.98143e-05
0.00150532
-0.00149517
-0.000317459
-0.00197742
-0.000734859
0.000756025
0.000608787
-0.000604177
0.000453493
-0.000912622
0.000285197
-0.000492472
0.000279351
-4.46477e-05
-0.000234704
0.00112902
-0.0016516
0.00125037
-0.000346197
-0.00221937
0.000375463
0.00339805
-0.00173824
0.00137368
-0.00202583
-8.93539e-05
0.00152278
0.000582999
-0.000887748
0.000748145
0.00245122
-0.00176413
0.000730949
-0.00115663
0.00282684
-0.00160349
-0.0026487
0.000897623
4.72629e-05
7.94867e-05
0.000793289
-0.00166649
-0.000655997
0.000199336
0.00159065
-0.000361759
4.60529e-05
0.00201967
0.00168744
0.00161708
-0.000401603
0.000224871
5.44804e-05
0.00284626
-0.00142431
-0.00026944
-0.000163024
-0.00165434
0.00124281
-0.00207768
-4.96626e-05
0.000107748
-0.000176254
-0.00112315
0.00111223
-0.000312004
0.000143873
0.00135495
-0.000888915
9.17115e-05
5.52134e-05
3.00204e-05
0.000376101
-0.000661293
0.00138724
0.000945915
-0.00142284
-0.000356261
0.00099435
-0.000217721
-3.49989e-05
0.00025272
0.000634671
-0.000126073
0.0012382
-0.000318981
0.000440491
0.000930997
-0.000174971
0.0011725
0.00117434
6.31649e-05
-0.000562406
-0.00030198
0.000148243
0.00012677
-0.000275013
-0.00121594
-0.000792034
0.000581667
0.000312713
0.00139881
0.00164919
0.00204971
-0.000338862
0.00246162
-0.00200813
-0.0014016
0.000129796
-0.000307882
-4.34732e-05
-0.000195214
0.000238687
-0.000155071
-0.000693525
0.000545846
0.000823309
0.000112801
-0.000481456
-0.000192155
0.000506651
-0.000667617
-0.000429307
0.00101995
-0.00288973
0.000880165
-0.0012759
0.000697492
0.000605204
0.000917575
0.00262762
-0.00103696
0.000659495
8.86498e-05
0.000232566
0.00101781
0.00230859
-0.00141096
-0.00152988
0.00126426
0.000570351
4.8207e-05
0.00040235
2.88702e-05
-0.000430473
0.000933098
0.00145323
-0.00177069
0.00233239
0.00120331
0.00158751
-0.000515359
0.00125653
0.00068387
-0.000995595
-0.00202908
0.00111646
0.000213888
0.0021402
0.000596391
-0.000745877
-0.00149592
-0.0019883
0.000321815
0.0019377
-0.00202706
0.000296716
0.00159955
-0.000840066
0.00208287
-3.97115e-05
-0.000134153
0.0013335
-0.000698827
-0.000276469
-0.000198375
-0.000809236
-0.000869572
0.00167881
-0.00154781
-0.000955408
0.00232909
-0.00125012
0.00267344
-0.00143524
-0.00077532
6.08675e-05
0.00078805
-0.00110005
0.000501154
3.65591e-05
-0.000417647
0.000426753
-0.000783014
0.0020583
0.000662375
-0.000819397
0.00117638
-0.00153814
0.000344923
-0.000148243
0.000160903
-0.00101026
0.0026977
0.00077806
0.000871128
-0.00122399
0.00104902
0.00076317
0.000853906
0.000665311
-0.000955974
-0.00125486
0.00292101
-0.00174851
0.00209237
-0.00246557
0.000387888
0.00178098
-0.00117815
0.000859171
-0.000246461
0.00142215
0.000886515
-0.00101259
-0.000135653
0.00169564
-0.0021182
0.00122928
0.000899231
-0.00120121
-0.00114999
0.0031997
0.00120266
-0.000632311
0.0013253
-0.000627809
0.000165698
-0.000203878
-0.000997857
-0.000226131
0.0010451
-0.00138396
0.0012247
-0.0012247
0.000114791
-0.000160904
0.000392768
-0.00138222
-2.87486e-05
0.00172997
-0.000526657
0.000459004
-0.00187593
0.00103587
-0.0010604
0.000626474
-0.00132944
0.00113728
0.00112746
-0.00233696
0.0011974
-0.00162671
0.00120349
0.000384024
-0.000207545
-0.000853934
0.000244158
-0.000759517
0.00104507
-0.0014603
0.00379269
0.000591238
0.000583101
0.000799948
-0.000976201
-0.000111342
-0.00196442
-0.000186315
0.00059854
-9.18899e-05
0.00283452
-0.00157799
0.00119101
-0.00132517
0.00144514
0.000294723
0.00207462
-0.000503601
-0.000230801
0.00131882
-0.00159472
0.00274948
-0.00115476
-0.00205994
0.00411824
-9.49848e-05
-0.000200824
-0.00280191
-5.52134e-05
-0.000311195
-0.000458965
-0.000649167
0.000539333
0.00154771
-0.000280421
-7.1226e-05
-0.000495229
-0.000906375
0.000684176
-1.88648e-05
0.000407998
-0.0011923
1.9249e-05
-0.000153417
-0.00267193
0.00409407
0.00101834
-0.00129481
-0.000599231
0.000549568
0.00277451
-0.00175456
0.00177578
-0.00181549
5.09248e-06
0.00141639
-0.00161476
-0.00165069
0.00123304
0.00108602
-0.00265752
0.00116159
0.00215606
-0.000460427
-8.35023e-05
0.0017394
0.000506382
0.000316927
0.000216981
-5.12828e-05
5.63669e-05
-0.0023195
0.000292438
0.00149743
0.000283544
0.000150139
-0.000178888
-0.00193161
-0.000482171
-0.000229473
-0.000121747
-0.00131468
0.00131468
0.00108948
0.00182622
-0.00196187
0.00188146
-0.000309676
0.00173274
0.000883053
-0.00108693
-1.94488e-05
-0.00142823
-0.00326957
0.00389605
4.40528e-05
0.000281943
-0.000325996
0.00122497
-0.00147143
0.00165246
-0.000182874
-0.000309586
-0.000750815
0.00144632
-0.000513403
-0.000441504
0.000736226
0.00222588
-0.00119001
0.00146065
-0.00164696
0.000204792
-0.00177422
0.00154809
-0.00139634
0.0025238
-0.000768552
0.000199511
0.000982041
-0.00118959
-0.0015587
0.000244022
-0.000158987
3.42641e-05
-0.000392768
0.000768868
-0.000629721
0.000824501
0.000135483
0.00239979
-0.000325172
-0.00212244
0.00126851
0.0027863
-0.00174123
-0.000460369
-0.00158206
0.00290089
0.00167539
-0.00178673
0.00117149
0.00193936
-0.00185388
0.00157346
-9.36686e-06
0.000411716
0.00114032
-0.00137112
-0.00182982
0.00337753
0.00105028
0.000935968
0.00115321
0.000291933
0.00256303
-0.00215504
0.000810093
-0.00387781
0.00393418
-0.000957788
0.000475617
0.00143675
0.0010828
-0.00128363
-0.00221996
0.00395936
-9.31484e-05
-0.00100907
-0.00172814
-0.000588299
0.00202657
-0.0025218
0.000911783
-0.00109067
0.00204961
-0.00220303
-9.48423e-05
-0.000889405
0.000160969
0.00258729
-0.00150128
-0.00284002
0.00457276
-0.0018282
0.00151853
0.00247184
-0.00245259
1.82366e-05
0.000216524
2.2163e-05
-0.000139828
0.000176387
0.000829543
0.00149555
0.000601162
-0.00015449
-0.0036494
0.00509572
0.000941737
-0.00010489
-0.00196307
0.000773057
0.001668
7.38901e-06
-0.000106217
-0.00114944
-0.00109198
0.00201376
-0.000132306
0.000823235
-0.000305791
0.00107106
-0.00264062
0.00121239
-6.42351e-05
0.00164282
-0.00163772
0.000198278
1.82459e-05
-0.00450609
0.00533059
0.00168859
-0.0021756
0.0016622
0.00143012
-0.00205984
2.80529e-05
0.00140213
-0.00152388
-0.000216839
-0.00167493
0.00115757
-0.0044755
0.00401513
0.00205594
-0.0017635
-0.00275592
0.00100136
0.000240446
0.00112571
-0.000106784
0.00118409
-0.00136697
0.0024327
-0.00229721
0.00111935
0.0028227
-0.00262319
-0.000851514
0.000491235
-4.41572e-05
0.000846065
-6.92983e-05
0.000262878
0.000923332
0.000166152
0.00121526
0.000923363
-0.00119016
0.000309924
-0.000541322
0.00237221
-0.00120072
-0.00137211
0.000886055
0.000268814
-0.000602143
-0.0031641
0.00215503
0.00128605
-0.00144503
-0.00212346
0.00103279
-0.00164784
0.000277661
0.000589629
-0.00255195
0.000620341
0.00271782
-0.000778455
-0.00522037
0.00523861
0.000966344
0.00118739
-0.00164557
-0.00174186
0.000370107
0.00262151
-0.00179196
0.00199478
-0.00183381
0.000870934
-0.00202782
0.00296956
0.000399505
0.00156837
-9.95323e-05
-0.00287111
0.00114297
-0.00517264
0.00408066
-8.50718e-05
0.00145126
-1.45076e-05
-0.00257743
0.00168803
0.00131896
0.000110219
-0.0023038
0.00337486
0.000319857
0.00311764
-0.00251648
-0.000768868
0.0010858
-0.00260637
0.00230058
-0.00266908
0.00382665
-0.00115751
0.000593843
-0.000685733
0.00237515
-0.00259199
-0.00315107
0.00427041
0.000133047
-2.52995e-05
-0.00123574
0.00205461
-0.000818864
0.00231903
-0.00154597
0.00127955
-0.00143404
-3.32732e-05
-0.000915234
-0.00297657
0.000454774
-0.00371193
0.00463529
0.00235091
-0.00245713
0.000685733
-0.000756959
-0.000593843
0.000498858
-0.00559816
0.00505684
7.79356e-05
-0.00165872
0.000494455
0.00211129
-0.000422697
0.000593686
-0.00427333
0.00486296
-0.00176927
0.00259251
-0.000840461
0.000756959
-0.00419015
0.00254231
8.38877e-05
-0.000612355
0.000528468
0.00234316
-0.00149709
0.00321321
-0.00218042
0.00253586
-0.00252847
-0.00203512
0.00133283
0.00291024
-0.00264736
0.000148243
-0.0023905
-0.000359557
0.00183099
-0.00159054
0.000665759
-0.00557762
0.00393205
0.0013794
0.00085389
-0.00282155
0.0022194
0.000193261
0.00155689
-0.00152883
0.000313628
0.00280384
-0.00252618
0.000705781
-0.00085991
-8.74192e-05
-0.000255454
0.0029677
-0.00269888
-0.00289383
0.00152172
0.000675585
0.000527064
-0.00149696
3.30067e-05
0.00141793
-0.00148722
-0.00120575
0.00119124
0.000558485
-0.000520971
9.51579e-06
0.00208727
-0.00121634
-0.00476306
0.00487328
0.00085991
-0.000953058
-0.00576526
0.00460775
0.000361955
-0.000498859
0.000269386
9.51543e-05
8.78992e-06
-0.000103944
0.000287362
-2.71078e-05
-0.0012058
-0.00242691
-3.02176e-05
-0.00161295
-0.00223148
0.000467979
-0.000822131
0.00305109
-0.00268099
5.13551e-06
0.000304788
0.00281733
-0.0028506
-0.00265672
0.000953059
-0.00105795
-0.000708415
-9.51544e-05
8.05725e-05
1.45818e-05
0.00154739
-0.000228438
0.000225336
0.00134493
-0.00143
9.98997e-05
-0.00161114
-0.00203847
0.000492503
0.000573885
0.0011247
0.000108943
0.00275883
-0.0026809
-0.000154765
0.000176928
-0.000212803
0.000381773
0.000320332
0.000590179
-0.00305853
0.0021433
0.000554035
0.00349184
-0.00303707
-0.00242839
0.00302208
-0.00108579
0.00125195
-0.0050571
0.00469754
-0.00480981
0.00262939
-0.00564215
0.00360703
0.00105795
-0.00116473
-0.00271515
0.00338091
-0.0022675
2.16218e-05
-0.000318912
-0.000269386
-0.00302341
0.00276796
0.000427943
-0.000315142
-0.0017101
-0.00305473
0.00376051
0.00178953
-0.000935639
0.000352211
-0.00296614
0.00130742
0.000232653
0.00269869
-0.00217162
0.00304918
-0.00255472
-0.00344745
0.00412303
-0.00562249
0.00412553
0.00022779
-0.000183737
-8.91063e-05
0.00283779
-0.00286801
-0.00386127
0.00441975
0.00255565
-0.0015543
0.0018599
-0.00052707
-0.000839128
-0.000164544
0.000481868
-0.00316962
0.00264864
-0.000183818
0.00167476
-0.00148149
-5.52134e-05
0.00404949
-0.00267009
-0.00101474
-0.00424589
0.00460784
0.000416852
-0.00144442
0.00103777
0.000573189
0.00116473
-0.00126426
0.000145922
-0.00508873
0.00438032
0.00139277
-0.00194154
0.000350999
-0.000185623
-0.00286539
-2.61347e-06
-0.000401656
0.00240953
-0.00191702
0.000368191
0.000270295
0.000813797
0.00299736
-0.00288842
0.00282459
-0.00253722
-0.00130119
0.00107276
-0.000109952
-0.00318354
0.00197774
-0.00455194
0.00465184
0.00304791
-0.00282258
0.000306931
0.000581667
0.000641243
0.000326176
0.000131966
0.000313063
0.00304789
-0.00272756
8.05933e-05
0.00151351
-0.00148051
0.000239533
-4.12544e-05
0.000814498
-0.000386554
0.000367012
0.00317856
-0.00279678
0.000261764
0.000194885
-0.000391189
0.0014758
-0.000828464
-0.000647332
-0.00159558
0.00216947
0.000173865
0.000237906
-0.00147356
-0.00540515
0.00313764
2.62898e-05
0.00146169
-0.000336997
0.00189537
-0.00130519
0.00148657
-0.00151368
-0.00529552
0.00358542
-0.00104024
-0.00179812
-0.00188432
0.00243836
0.000934624
-0.000427315
-0.000442257
0.00299207
-0.00263986
0.00294661
-0.00294923
-0.00125195
0.00126146
0.000290138
0.00126427
-0.00135168
0.00501924
-0.00238985
-0.00326978
0.00243065
0.00281843
-0.00258578
-0.00116999
0.00304433
-0.00291236
5.59041e-05
0.000251106
0.000455836
-0.000228046
0.000269865
0.000540157
-0.00308211
0.00289649
-0.000621136
-0.00426108
0.00122401
-0.00472971
0.0045459
0.00234914
-0.00497089
0.00395615
0.000140694
-0.00275358
0.00114063
0.0030997
-0.00280956
5.6567e-05
0.000264517
-0.00215761
0.000240586
-0.00317183
0.00277018
0.000865978
0.000120103
-0.000590572
-0.00173572
0.000254226
-0.000700862
0.00159741
-0.00102422
0.00292202
0.000122307
0.000281211
-0.000887368
0.000275013
-0.0001355
0.00296952
-0.00271842
0.000187339
-7.78759e-05
0.00347737
-0.00283612
-2.72076e-05
-0.00138472
0.000299787
0.00290132
-0.00253313
-0.00144616
0.000285145
0.000654791
-0.0028683
-0.00164733
0.00157711
-0.00143119
-0.000609555
-0.00313
0.00168557
-0.00085991
-0.000199512
0.000280747
-0.00285174
0.00297405
0.00297669
-0.00260968
0.000159962
0.000537509
0.000261455
-0.00473289
0.0043417
-0.000275344
-0.00224289
0.000631756
0.00306234
-0.002875
-0.00318637
0.00256523
-0.00144079
0.00135168
9.51543e-05
-0.00124642
0.000909419
0.000172241
-0.000355978
0.000210593
-0.000173659
-0.00481013
0.00301201
-0.00321065
0.00217041
0.00492487
-0.00178722
0.00288464
-0.00262012
-0.000779995
0.000390909
0.0038691
-0.00264509
-0.000269386
-0.00115226
-0.00041619
0.000350037
-0.000177796
0.00253502
0.000292216
-0.00122471
-0.00247942
0.00271733
0.0013023
-0.000762141
-0.00271733
0.00298762
0.00276281
-0.00249294
-0.00126146
0.00115151
-0.000131107
-0.000200486
0.000159231
-0.00298762
0.00329455
-0.00248954
0.000935244
0.000386554
-0.000245861
0.000166224
-0.00466975
0.00349977
-8.05933e-05
0.000102215
-0.00329455
0.00362073
0.00293943
-0.00277947
-0.00362073
0.00393379
9.66027e-05
-0.000549568
0.000104629
0.000444939
-0.00393379
0.00419556
-0.000186998
-0.000325602
0.000458649
6.44373e-05
0.00301564
-4.15856e-05
-0.00419556
0.00436942
-0.00470556
0.00183726
0.0013382
-0.000403572
0.00022968
-0.00235642
-0.00306296
0.00303575
-0.000713609
-0.0031517
0.00287635
0.00275484
-0.00247363
0.000209099
-0.00189318
0.00168408
0.00319069
-0.0025359
0.00247942
-0.00223884
0.00298942
-0.00312492
-2.3558e-05
0.00278759
-0.00252613
0.0015974
-0.00134318
0.00103298
0.000728642
0.000380349
0.00012199
-0.00436942
0.00442533
-0.0014291
0.000475975
-0.00194953
0.000581013
-0.00462826
0.00403769
0.000167467
0.00027808
0.00284259
-0.00267637
0.000261901
0.000166215
-0.00309582
0.00231582
0.00102804
-0.000528508
-0.000499535
0.00285865
-0.00264806
0.00152443
-0.00149814
6.312e-05
-0.00310869
0.0026925
-0.000530587
0.00281249
-0.00242158
0.00223884
-0.00195809
-0.00399066
0.00134557
-0.0042476
0.00246038
0.00195809
-0.00167295
0.00269255
-0.00246287
-0.00134891
-0.00138422
-4.73266e-05
-0.00173097
0.000346244
0.00303653
-0.000866128
-0.00442533
0.00434745
-0.000162275
-0.00426917
0.00191275
-0.00123559
0.00167295
-0.00137316
0.00334176
-0.00230878
-0.000286555
-8.91658e-05
0.000338857
-0.00215341
1.07467e-05
-0.00173415
-0.00284809
0.00140194
0.000805862
-0.00023234
0.000163873
-0.00029498
0.00188427
0.000275713
-0.000111841
-0.00116252
0.000265901
0.000166416
0.00281706
0.00264806
-0.00258362
-0.00426889
0.00304418
0.000245861
-0.000123871
0.00328562
-0.00194005
0.00274834
-0.00258088
9.79177e-05
-0.00115151
0.000977851
0.0013028
-0.00118269
0.00287912
-0.00229811
-0.00125499
-0.00131778
-0.000100095
-0.00157183
0.000228653
-0.00122559
0.00137316
-0.00108094
0.00265916
-0.00239726
0.00111746
-0.000208036
0.00288788
-0.00208202
-0.00356392
0.00141051
7.19748e-05
0.000976837
-0.000769124
0.000713884
-0.00144205
0.00153866
-0.00434745
0.00416045
0.00045754
-0.00165117
-0.00135287
0.00151909
-0.00369853
0.00196439
-0.000220319
0.000120224
-0.00298285
0.00245226
-0.000102215
7.86571e-05
0.00264173
-0.00230287
0.000589775
-0.00290861
0.00204248
0.000196293
0.00258362
-0.0025205
0.00277184
-0.001795
0.00146266
-0.001234
0.00108094
-0.000802864
-0.00123816
0.00191209
0.000689816
-0.000592782
-0.00439236
0.00367875
-0.00297925
0.0010392
-0.000290344
0.00034105
-3.6262e-05
-0.000549568
-0.00383886
0.00260327
0.00266028
-0.00249387
0.00261646
-0.00215892
0.0025183
-0.00268057
-0.00156874
0.000123871
-2.59529e-05
-0.00281706
0.00276974
-0.0032004
0.00154922
-0.00195755
0.00254732
-0.00276974
0.00268057
0.000802865
-0.000536964
0.00117584
-0.0004472
-6.10872e-05
-0.0025183
0.00228596
0.000244464
0.000109783
0.00254842
-0.00150922
0.00240629
-0.00171647
0.000289017
-0.0015146
-0.00123601
7.94094e-05
0.000313589
0.00275544
-0.000871165
-0.00416045
0.0038739
0.00075342
-0.000354672
-0.00264806
0.0025205
-0.00244852
7.70344e-05
0.00159292
0.000448742
0.000388403
-0.00124001
0.00217526
-0.00137586
0.00014186
-0.00341921
0.00218105
-0.00249757
0.00114865
-0.00277046
0.00120172
-0.00216227
0.000922257
-0.00108685
-0.000794676
0.000536965
-0.00026616
-0.000270805
0.000431124
-0.00168611
-0.00109563
7.53545e-05
0.000341497
-7.86571e-05
1.75699e-05
-0.00108348
-0.00122123
0.0022163
-0.00146288
-0.00191469
0.0023031
-0.00211339
0.00242698
-0.000977852
0.000769815
0.00138422
-0.00137348
0.000499827
-0.00242443
0.00132879