/*--------------------------------*- C++ -*----------------------------------*\
  =========                 |
  \\      /  F ield         | OpenFOAM: The Open Source CFD Toolbox
   \\    /   O peration     | Website:  https://openfoam.org
    \\  /    A nd           | Version:  8
     \\/     M anipulation  |
\*---------------------------------------------------------------------------*/
FoamFile
{
    version     2.0;
    format      ascii;
    class       volVectorField;
    location    "0.5";
    object      U;
}
// * * * * * * * * * * * * * * * * * * * * * * * * * * * * * * * * * * * * * //

dimensions      [0 1 -1 0 0 0 0];

internalField   nonuniform List<vector> 
1924
(
(-0.133814 0.00436869 2.15607e-17)
(0.0533904 0.0832659 2.14848e-17)
(0.51764 0.276679 5.46237e-18)
(0.451192 0.216099 3.01314e-18)
(0.0787633 0.0135832 1.97393e-17)
(0.56767 0.165586 2.7143e-18)
(0.590324 0.107472 8.71575e-19)
(0.736351 0.0578124 -4.44237e-19)
(0.708019 -0.021234 -2.34768e-20)
(0.462047 0.385048 7.56258e-18)
(0.80001 -0.0749484 -3.35227e-19)
(0.763188 -0.163691 -5.56251e-19)
(0.3776 -0.234973 2.37159e-18)
(0.860001 -0.229456 -1.45372e-18)
(0.837384 -0.576182 6.43864e-18)
(0.653776 -0.474791 9.97859e-18)
(0.331843 -0.325365 2.95489e-18)
(0.829854 -0.307429 2.47862e-20)
(-0.200629 0.161894 2.34391e-17)
(0.889608 -0.368005 -3.24331e-19)
(0.230551 -0.0651159 3.42106e-18)
(0.35015 -0.929732 9.68249e-18)
(0.696544 -0.384579 9.31149e-19)
(0.842564 -0.440663 -6.02036e-19)
(0.364816 -0.930372 7.48394e-18)
(0.585853 -0.495917 1.23521e-17)
(0.787094 -0.367635 1.07018e-17)
(0.273474 0.732706 1.06943e-17)
(0.144605 -0.00764809 1.55173e-17)
(0.304735 0.0314223 1.24466e-18)
(0.504123 -0.43068 1.83841e-18)
(0.416488 -0.904637 8.1117e-18)
(-0.0543055 -0.253984 1.71922e-17)
(0.472405 -0.344035 1.90895e-18)
(0.339602 0.677221 8.8237e-18)
(0.73995 -0.488353 7.94558e-19)
(0.522494 -0.681263 1.29367e-17)
(0.289236 0.0596792 1.42215e-17)
(0.172401 0.190651 6.92158e-19)
(0.429167 -0.408266 1.83118e-18)
(0.586474 -0.611157 1.35535e-17)
(0.367064 -0.107457 2.86131e-18)
(0.549985 -0.650676 1.23694e-17)
(0.825618 -0.29152 -6.37044e-19)
(0.474137 -0.527822 4.30938e-18)
(-0.100674 -0.374589 1.73945e-17)
(0.00351315 0.277747 2.58306e-17)
(0.180469 -0.330082 6.23792e-20)
(0.529241 0.500273 1.2788e-18)
(0.123873 0.0514378 3.50147e-18)
(0.715178 -0.605237 -3.78143e-18)
(0.208717 -0.28377 3.09925e-18)
(0.317435 -0.96644 7.73346e-18)
(-0.332507 -0.278232 1.02153e-19)
(-0.0378756 -0.352612 1.50341e-17)
(0.353415 0.522011 7.15451e-18)
(-0.238086 0.133704 2.40854e-17)
(0.143231 -0.355036 1.67325e-18)
(0.312656 0.467979 3.78506e-18)
(0.630888 0.633475 7.37866e-18)
(0.942222 -0.323115 -2.18639e-18)
(0.853291 -0.357523 9.48666e-18)
(0.981842 -0.209375 -1.76134e-18)
(0.526825 0.387842 -4.29754e-18)
(-0.106468 0.157836 5.73155e-18)
(0.0975316 -0.112168 5.98766e-19)
(0.403898 -0.0612943 4.79967e-18)
(0.566985 -0.595117 1.09337e-18)
(0.113851 -0.0295881 1.39535e-17)
(0.836481 -0.38756 8.86002e-19)
(0.130271 -0.105623 3.31267e-18)
(0.640624 -0.300765 1.21394e-17)
(0.174119 0.173368 -1.52921e-18)
(0.315227 -0.104551 1.49704e-18)
(0.259197 -0.128109 1.78417e-18)
(-0.000107006 -0.116202 1.29273e-17)
(0.2575 -0.168589 8.77005e-20)
(0.293986 -0.176641 1.17512e-18)
(0.300526 -0.314688 2.55016e-19)
(0.956575 -0.352327 -2.6003e-18)
(0.420526 -0.422125 -2.29774e-19)
(0.996113 -0.113381 8.15836e-18)
(0.213289 -0.253845 1.76597e-18)
(0.0145811 -0.256031 3.89013e-18)
(-0.0978934 -0.12888 2.04739e-17)
(0.603703 -0.673052 1.44798e-18)
(0.257765 0.547603 5.301e-18)
(0.983192 -0.508253 3.53123e-18)
(0.259009 0.208264 1.72264e-18)
(-0.0246701 -0.289783 3.02207e-18)
(0.809698 -0.155066 7.73139e-18)
(0.770629 -0.157399 5.39978e-18)
(-0.0112011 -0.285546 1.48806e-17)
(0.292169 -0.31316 1.1146e-17)
(-0.002524 -0.353056 3.94913e-18)
(-0.0191346 0.103627 2.60717e-18)
(0.270184 -0.0692876 3.53794e-19)
(0.477966 -0.412571 -3.24281e-20)
(0.91437 0.522402 7.55201e-18)
(0.286769 0.0170907 1.00778e-17)
(0.550107 0.118629 5.79135e-18)
(0.0102572 -0.334822 3.60901e-18)
(1.05146 0.537305 5.53961e-18)
(0.950173 0.168165 6.16873e-18)
(0.0427378 -0.219297 1.17223e-17)
(0.326154 -0.252316 1.44539e-18)
(0.469039 -0.0847426 5.09068e-18)
(0.0766677 -0.335412 1.25857e-17)
(0.566958 0.153092 1.10401e-17)
(0.294358 -0.439842 9.05502e-18)
(0.363031 -0.0592596 2.94731e-19)
(0.419803 -0.118297 9.28847e-18)
(0.272066 0.143719 1.57882e-17)
(0.220828 -0.15967 6.83706e-19)
(0.32519 -0.248957 3.81714e-19)
(-0.0688538 -0.235066 5.05985e-18)
(0.604223 0.18951 4.27517e-18)
(0.184524 -0.507604 1.3989e-17)
(0.724501 -0.726827 3.82923e-18)
(0.325725 -0.198127 1.69048e-19)
(-0.089159 -0.149229 2.15623e-17)
(0.615433 0.036355 -9.95366e-19)
(0.355065 0.100833 2.31056e-18)
(-0.0800716 -0.223281 5.11334e-18)
(0.377175 -0.235161 7.95551e-18)
(0.392372 -0.360158 1.05251e-17)
(0.00331427 -0.0865838 1.28609e-17)
(0.281611 -0.208938 9.5751e-19)
(0.440911 -0.235796 7.10106e-18)
(0.519798 -0.13223 -6.26498e-19)
(0.397735 -0.103377 2.91792e-19)
(0.547908 0.000500963 4.52815e-18)
(0.00221842 -0.3823 1.45826e-17)
(0.293877 -0.203421 1.03623e-18)
(0.0682458 -0.399667 3.72427e-18)
(0.264217 0.0190834 7.31514e-18)
(0.446127 0.0485367 1.05831e-17)
(0.453836 -0.0741088 7.80349e-18)
(0.886282 -0.505163 3.82427e-20)
(0.409866 0.382099 1.17763e-17)
(0.112222 0.299474 2.85714e-18)
(0.671013 -0.337173 1.06184e-17)
(0.244903 0.37067 9.13627e-18)
(-0.152196 -0.363275 5.92654e-18)
(0.681084 0.127539 1.99418e-18)
(0.468747 -0.16834 -1.82887e-18)
(0.050538 -0.348915 1.24014e-17)
(0.34797 -0.00767762 7.34939e-18)
(0.442736 -0.0704424 1.279e-17)
(0.751225 -0.449591 3.44937e-18)
(0.251602 -0.374391 1.20986e-18)
(0.51218 0.00251124 1.25454e-19)
(0.109152 -0.0586249 1.28223e-17)
(0.676125 0.00120878 3.47421e-18)
(0.702051 0.118049 1.70418e-18)
(0.408002 -0.283161 8.32561e-18)
(0.591474 0.108811 -2.84001e-18)
(0.508019 0.134147 8.91625e-18)
(0.47448 -0.0963819 2.66181e-19)
(-0.139101 -0.373858 2.03072e-18)
(0.313518 -0.117843 7.41144e-19)
(-0.0485969 -0.339949 1.42939e-17)
(0.763001 0.0691931 2.00582e-18)
(0.685624 0.00419111 1.97136e-19)
(-0.228316 -0.113824 1.08559e-18)
(0.467761 -0.116714 7.42093e-18)
(0.580874 -0.195413 5.8749e-18)
(0.569576 0.127137 -2.14493e-18)
(0.342796 -0.194698 2.97426e-19)
(0.409572 -0.182268 4.86597e-18)
(-0.0368929 -0.285791 1.63953e-17)
(0.859865 0.0581955 2.31603e-18)
(0.305324 -0.279693 6.72619e-19)
(0.833089 0.303749 7.85338e-18)
(0.216492 0.330712 3.62621e-18)
(0.0822682 -0.321083 8.12348e-18)
(0.304844 -0.0384383 2.34449e-19)
(0.125078 0.0563636 3.15343e-18)
(0.833128 -0.508339 -2.64132e-19)
(0.931054 0.02888 1.34036e-19)
(0.446131 -0.441838 7.94207e-18)
(0.0410342 -0.657696 1.38382e-17)
(0.349005 -0.191414 8.02545e-19)
(0.635762 -0.198178 5.90233e-18)
(0.581342 0.603183 -3.19901e-19)
(0.304174 0.495274 2.06656e-17)
(0.183973 -0.186535 1.22407e-17)
(0.784545 -0.46501 7.04114e-18)
(0.36937 -0.170684 3.30288e-19)
(0.387613 -0.169372 9.5463e-19)
(0.086469 -0.265393 1.11184e-17)
(0.884891 0.032557 6.04144e-19)
(0.476761 -0.158784 3.32389e-19)
(0.96631 0.0263183 4.9835e-19)
(0.819438 -0.1298 3.8262e-18)
(0.503147 -0.00740901 1.29257e-19)
(1.04871 -0.221774 4.6007e-18)
(0.154129 -0.429667 7.64982e-18)
(0.233529 -0.408267 9.85183e-18)
(0.152771 -0.539313 6.97302e-18)
(-0.0809171 -0.412015 1.18859e-17)
(0.220171 0.620085 2.02293e-17)
(0.567499 -0.132233 4.47062e-18)
(0.960307 -0.0423927 3.6533e-19)
(-0.0689454 -0.0012034 1.73381e-17)
(0.515495 -0.515618 8.41143e-18)
(1.05907 -0.0312522 4.35722e-19)
(0.179604 -0.336941 7.14903e-18)
(0.2324 -0.115554 7.14203e-18)
(0.0621561 -0.340838 1.35623e-17)
(0.720384 -0.014467 3.67537e-19)
(0.466895 -0.141977 3.882e-18)
(0.972316 -0.622855 -5.40697e-19)
(0.899664 -0.121938 3.89972e-18)
(0.753379 -0.448519 7.32584e-18)
(0.318301 -0.22695 6.26606e-19)
(0.433805 -0.257366 1.42953e-17)
(0.0578367 -0.245224 9.76313e-18)
(1.05292 -0.0612936 3.60511e-19)
(0.249422 -0.23493 1.01947e-18)
(0.211204 -0.22327 1.01923e-17)
(0.163225 -0.351703 3.92146e-18)
(0.641217 -0.130554 4.72632e-18)
(1.00472 -0.639574 9.16261e-19)
(0.935087 -0.0925131 9.77487e-20)
(1.0354 -0.204771 5.23344e-18)
(0.533383 -0.183788 8.30098e-19)
(0.329133 -0.328693 3.19901e-19)
(1.10215 -0.0920836 2.31394e-18)
(0.177501 -0.567323 8.21955e-18)
(-0.232115 -0.251201 1.48503e-17)
(0.815138 0.407883 6.53149e-18)
(0.316367 -0.495013 9.34845e-18)
(0.220663 -0.0561886 7.78844e-18)
(1.25192 -0.069912 2.86248e-18)
(-0.0603834 -0.45605 1.27291e-18)
(0.876061 -0.708472 -9.01785e-19)
(1.11553 -0.124465 3.00368e-19)
(0.790921 -0.115499 2.89329e-18)
(0.522094 -0.0372112 1.13174e-19)
(-0.171536 -0.664406 1.46909e-17)
(0.463535 -0.540728 9.04932e-18)
(0.823082 -0.657188 -5.79843e-19)
(0.124464 -0.343818 4.83974e-18)
(0.342032 -0.36175 1.83413e-18)
(0.097755 -0.351589 5.14314e-18)
(1.00248 -0.170288 1.11252e-18)
(0.229244 0.198809 2.20356e-18)
(0.331638 -0.193766 8.82408e-19)
(0.311623 -0.315279 6.39122e-20)
(0.76711 0.509832 5.87732e-18)
(0.682322 -0.0330183 3.39101e-19)
(1.18001 -0.0820919 3.72037e-18)
(0.574488 -0.128837 2.56499e-18)
(0.383442 -0.193896 3.85866e-19)
(0.945401 -0.749083 1.66769e-18)
(0.542274 -0.484702 1.41337e-17)
(0.427566 -0.687068 9.90643e-18)
(0.284327 -0.207746 1.20565e-17)
(1.09485 -0.170665 2.83061e-19)
(0.50579 -0.077402 8.7252e-18)
(0.919176 -0.0986795 2.40899e-18)
(0.827789 0.170513 1.13518e-17)
(0.335378 -0.214711 3.7108e-19)
(0.392727 -0.884538 9.19757e-18)
(0.179238 -0.114534 2.31593e-18)
(0.615022 0.0455175 1.42579e-18)
(0.268067 -0.293067 4.20762e-19)
(-0.0828865 -0.398005 1.47668e-17)
(0.155133 0.540109 2.86707e-17)
(0.177603 -0.674698 6.92047e-18)
(0.0483239 0.0283356 5.28535e-19)
(-0.142512 -0.453576 1.79588e-17)
(0.531984 -0.644591 1.09105e-17)
(0.571961 0.587033 6.14633e-18)
(0.396089 -0.479175 5.31472e-19)
(0.973029 -0.230216 -1.75825e-19)
(1.23307 -0.00360176 3.45441e-18)
(0.667921 -0.0874128 2.39393e-18)
(0.283957 -0.544125 9.48314e-18)
(-0.0575065 -0.364125 1.82697e-17)
(0.497455 -0.0508599 -2.06636e-19)
(0.888676 0.0513007 7.5265e-18)
(1.27845 -0.0908819 1.18923e-18)
(-0.12743 -0.0457974 2.27249e-17)
(0.361482 -0.153531 1.11279e-18)
(0.525643 -0.244064 1.11658e-19)
(0.6462 -0.0988267 -5.53624e-19)
(1.15219 -0.224041 -3.16023e-19)
(0.487922 -0.542633 8.6695e-18)
(1.06771 -0.061527 1.14334e-18)
(0.0832665 -0.0130084 2.21008e-18)
(1.35454 0.066137 9.18349e-19)
(0.811415 -0.827387 4.51209e-19)
(-0.0421533 -0.134316 5.48413e-18)
(-0.0885032 -0.101063 5.0311e-19)
(0.926277 -0.727709 3.03801e-18)
(0.0948573 -0.506727 2.93161e-18)
(0.250186 -0.282307 6.87688e-19)
(0.824251 -0.866651 1.13785e-18)
(0.412521 -0.110193 -6.43255e-19)
(0.820491 -0.0939313 1.78691e-18)
(0.713826 -0.736503 -1.31267e-19)
(0.335257 -0.254193 1.43296e-17)
(1.05303 -0.296268 -2.77424e-19)
(0.715472 -0.702384 1.50195e-17)
(0.741037 -0.0138682 8.21553e-19)
(0.66956 -0.672548 -2.45605e-19)
(0.454914 -0.727857 1.06816e-17)
(0.462827 -0.352128 1.91819e-18)
(0.102024 -0.384776 5.65538e-18)
(0.76033 -0.186567 8.90333e-19)
(1.33479 -0.0848982 7.67779e-19)
(0.344235 -1.02991 6.94027e-18)
(0.428419 -0.200377 1.52032e-19)
(0.681332 -0.0884667 1.60059e-18)
(0.52204 -0.161703 7.31361e-18)
(1.12991 -0.277026 -2.33159e-19)
(1.17332 -0.0647776 6.40444e-19)
(0.725687 0.00580519 5.36852e-18)
(0.0795737 -0.0485964 2.58499e-18)
(0.201645 -0.69394 7.3522e-18)
(0.980799 -0.0245239 8.28809e-19)
(-0.0791984 -0.331651 -8.12202e-20)
(0.784191 -0.44451 1.11329e-17)
(0.331568 -0.400748 7.24913e-19)
(0.606027 -0.49324 8.81148e-18)
(0.56341 -0.698993 1.34328e-17)
(0.333241 0.209982 1.8034e-18)
(0.579334 -0.293897 -2.95416e-19)
(0.327659 -0.586276 9.03252e-18)
(0.0116755 0.25716 3.23544e-18)
(0.347218 -1.06044 5.80494e-18)
(1.00586 -0.362888 -2.25338e-19)
(0.198133 -0.234172 1.40731e-18)
(1.31001 0.208649 1.07478e-18)
(0.442601 0.754752 7.07457e-18)
(1.21274 -0.078308 6.65476e-19)
(1.36491 -0.147787 8.80078e-19)
(1.076 -0.0508333 1.33668e-19)
(0.309507 -0.384747 2.86687e-19)
(0.0621311 -0.197632 3.69479e-20)
(0.364421 -1.00956 7.71909e-18)
(0.114957 -0.536278 3.93996e-18)
(0.773582 -0.828329 4.05293e-18)
(0.0756341 -0.244337 1.44926e-17)
(-0.370253 -0.54829 1.82821e-17)
(-0.306768 0.0693394 5.44446e-18)
(0.682913 0.356917 -1.2442e-18)
(0.653193 -0.564076 1.32449e-17)
(0.465739 -0.768283 1.16882e-17)
(0.555125 -0.0257767 2.58847e-18)
(-0.041857 -0.64697 1.98032e-18)
(0.677662 -0.907437 3.7784e-19)
(0.073326 -0.440589 4.83011e-18)
(0.27005 -0.358578 2.54856e-19)
(0.550898 0.384151 -5.79513e-19)
(1.16313 -0.305636 -2.25454e-20)
(0.401734 -0.751031 9.99462e-18)
(0.0594049 0.0193685 1.44339e-18)
(1.37028 0.232249 3.44571e-18)
(0.685079 -0.966671 1.98908e-18)
(0.651271 -0.838149 5.078e-20)
(0.0954339 0.662581 5.05756e-18)
(0.437416 -0.861777 1.12978e-17)
(1.11925 -0.0501323 3.94672e-19)
(0.347362 -1.04197 8.51993e-18)
(0.228046 -0.737922 6.20287e-18)
(1.40238 -0.135759 1.34163e-19)
(1.28359 -0.0972036 2.07478e-19)
(0.561874 -0.71857 -2.75474e-19)
(0.888877 -0.0330803 5.14452e-18)
(0.548491 -0.723237 1.22876e-17)
(-0.199661 -0.872733 1.19966e-17)
(0.63298 -0.365402 1.21485e-17)
(-0.10997 -0.0339376 9.4754e-18)
(0.611821 -0.974732 3.83365e-18)
(0.640901 -0.781362 7.51377e-18)
(0.362135 -0.991938 9.0357e-18)
(-0.316768 -0.0125825 5.87616e-18)
(-0.190747 -0.0949103 1.08736e-17)
(0.249963 -0.343918 8.25078e-19)
(0.596057 -0.467865 6.86449e-18)
(1.10142 -0.0546884 3.82797e-18)
(0.286605 -0.711709 8.89534e-18)
(0.523497 -0.657557 -5.40853e-19)
(0.166603 -0.21519 2.17805e-18)
(-0.104347 0.657726 3.41486e-18)
(0.589069 -0.446061 1.30392e-17)
(1.18296 -0.0896825 3.67667e-19)
(0.0979754 -0.561133 9.48388e-19)
(0.332656 -1.09543 6.7281e-18)
(0.849886 -0.328809 7.18234e-18)
(-0.438443 0.371262 5.54723e-18)
(1.27901 -0.161358 3.04594e-19)
(-0.121491 -0.125848 1.39553e-17)
(0.51312 -0.670904 1.24597e-17)
(0.358964 -1.02808 8.43693e-18)
(0.566842 -0.355244 -1.25518e-19)
(-0.0211343 -0.407337 1.48689e-17)
(0.257257 -0.232981 -1.67806e-19)
(0.201835 -0.317603 8.48815e-19)
(0.131744 -0.569833 3.38522e-18)
(-0.118411 -0.269463 1.36671e-17)
(0.401094 0.06283 -1.09635e-18)
(0.20383 0.525195 8.8434e-18)
(0.44014 -0.574808 4.51132e-19)
(-0.506206 0.36576 6.36804e-18)
(0.447304 -0.780061 1.17232e-17)
(0.466433 -0.755658 1.12425e-17)
(1.31228 0.430283 5.38151e-18)
(0.401156 -1.01415 5.55551e-18)
(1.13603 -0.36534 4.06054e-19)
(1.18449 -0.127208 2.93486e-19)
(1.36024 -0.234845 3.32481e-18)
(0.275513 -0.338373 1.37289e-17)
(0.339393 -0.481867 6.93373e-19)
(0.537786 -1.04558 1.39067e-18)
(0.581823 -0.785402 2.1413e-18)
(0.392037 0.0864081 7.00249e-19)
(0.566783 -0.999565 6.25164e-19)
(0.239646 -0.771066 5.02544e-18)
(0.409984 -0.533737 7.379e-19)
(0.0830956 -0.493988 4.10735e-18)
(0.409999 -0.914388 1.13658e-17)
(0.52328 -0.877633 -6.74034e-20)
(0.42499 -0.239529 1.64266e-20)
(0.0411955 -0.306323 2.84654e-18)
(0.33297 -1.05945 8.54989e-18)
(0.791522 -0.220373 1.23437e-17)
(-0.13117 0.642911 7.27165e-18)
(0.311409 -0.460506 1.15815e-20)
(0.80811 0.0870161 1.11028e-17)
(0.552928 -0.454992 5.17014e-18)
(1.3215 -0.197944 1.9981e-18)
(0.615573 -0.328048 1.32391e-17)
(0.497764 -0.805291 -1.41762e-19)
(0.951349 0.157585 -1.48562e-18)
(1.22693 -0.178642 2.54012e-19)
(0.322741 -1.03244 9.41111e-18)
(0.350704 -0.757768 9.5345e-18)
(0.591637 -0.616 1.28736e-17)
(1.19144 -0.0293278 1.76692e-18)
(-0.0834493 -0.240949 1.2416e-19)
(-0.561906 0.15971 5.25341e-18)
(0.0700084 -0.160159 8.29445e-19)
(1.222 0.320898 6.32892e-18)
(0.172357 -0.299457 1.00473e-18)
(0.908567 -0.374107 8.43544e-18)
(-0.332928 0.509905 6.17819e-18)
(0.285797 -0.796374 1.10604e-17)
(0.334349 -1.0736 7.52614e-18)
(1.2958 -0.0418948 1.26229e-18)
(0.617609 -0.415049 2.36949e-20)
(0.545949 -0.70895 1.27139e-17)
(1.08957 -0.112313 6.41236e-18)
(0.429828 -0.695918 -1.39192e-19)
(0.360681 -1.01855 5.30966e-18)
(0.600984 -0.19367 1.40518e-18)
(-0.441451 -0.039588 1.09432e-17)
(0.26368 -0.429447 -2.08579e-19)
(0.358065 -1.05073 8.40096e-18)
(0.841716 -0.139592 6.36791e-19)
(0.613727 -0.16273 2.52608e-18)
(0.152326 -0.600098 3.93795e-18)
(-0.486736 0.530629 5.47257e-18)
(-0.528479 0.322295 7.70401e-18)
(1.369 -0.226547 4.8298e-18)
(1.21073 -0.227038 1.94088e-19)
(0.41831 -0.315309 6.70999e-19)
(0.450439 -0.867822 1.22963e-17)
(0.601479 -0.770837 7.51225e-18)
(0.078241 -0.238662 3.17215e-18)
(0.403697 -0.64747 -1.40275e-19)
(0.283765 -0.847576 5.27345e-18)
(0.243057 -0.415815 -2.55699e-20)
(0.212936 -0.409515 1.11805e-18)
(1.13806 -0.344675 2.04678e-18)
(-0.594003 0.107323 5.6748e-18)
(-0.271611 -0.398643 1.49052e-17)
(1.07799 0.562407 4.86165e-18)
(1.27447 -0.263401 1.9689e-18)
(0.289165 -0.0305067 1.31026e-17)
(-0.590583 0.296755 6.66883e-18)
(0.348151 -1.06878 9.55533e-18)
(0.438287 -0.911865 1.21525e-17)
(0.725952 -0.53369 1.32593e-17)
(-0.402498 -0.848604 1.04641e-17)
(0.804119 -0.157853 1.31975e-17)
(0.466048 -0.267572 1.70577e-20)
(0.965232 0.0522985 -9.70282e-19)
(0.878176 -0.28532 1.3761e-17)
(0.72853 -0.493053 6.49302e-18)
(0.48072 0.0722464 5.07875e-19)
(0.427189 -1.02898 2.17682e-19)
(0.345732 -0.575101 1.05274e-19)
(-0.579718 0.0744825 7.89456e-18)
(0.113544 0.330519 1.1049e-17)
(0.638098 -0.655524 1.31035e-17)
(-0.112835 -0.225992 1.00865e-18)
(0.427819 -0.954507 -3.75776e-20)
(0.23084 -0.955827 8.45279e-18)
(0.310355 -0.799678 5.29475e-18)
(0.335736 -1.06443 8.86972e-18)
(0.156223 -0.4629 4.36546e-18)
(0.115315 -0.474176 9.4336e-18)
(0.351689 -1.09575 1.90297e-18)
(0.565278 -0.82906 1.28732e-17)
(0.321662 -1.10566 1.01014e-17)
(0.387781 -0.821915 -1.81137e-19)
(0.20096 -0.392381 8.60267e-19)
(0.32008 -0.542778 4.35341e-19)
(-0.165914 0.225257 1.22243e-17)
(1.35638 -0.00114904 9.98565e-19)
(-0.227314 0.217096 1.2694e-17)
(-0.34996 0.189986 1.20446e-17)
(0.351042 -1.05053 7.72065e-18)
(0.992419 -0.125749 7.40818e-18)
(1.21338 -0.27018 1.51673e-18)
(-0.449715 -0.255536 1.42915e-17)
(0.733219 0.259525 5.6629e-19)
(0.25249 -1.07855 3.55503e-18)
(0.263577 -0.501905 -4.65458e-19)
(0.370807 -0.763886 -1.18137e-19)
(1.41042 -0.0507802 3.27369e-19)
(1.09589 0.138272 4.99263e-18)
(0.114547 -0.301709 2.58414e-18)
(0.929444 -0.438685 1.05783e-18)
(0.517256 -0.885691 1.36539e-17)
(1.27553 -0.3489 7.60686e-18)
(0.586125 0.286041 1.31922e-18)
(1.1014 -0.410168 1.4562e-18)
(0.415717 -0.925314 7.78991e-18)
(0.714008 -0.680442 1.22342e-18)
(0.204817 -0.603688 3.51325e-18)
(-0.440692 0.134418 9.90555e-18)
(1.27115 -0.300016 4.08032e-18)
(0.309985 -0.878898 5.75798e-18)
(0.726138 -0.235849 5.02787e-19)
(0.426459 -0.884405 1.20867e-17)
(0.335595 -1.06727 8.61815e-18)
(-0.196744 -0.120093 -3.87073e-18)
(0.744995 -0.506526 -2.79879e-18)
(0.178024 -0.380254 1.38992e-18)
(0.325133 -0.674126 -1.26095e-19)
(0.806317 -0.518577 1.18564e-17)
(0.0718258 -0.285686 3.14257e-18)
(0.593126 0.273294 -2.00794e-18)
(-0.590954 0.0659475 8.11441e-18)
(0.587586 -0.472515 -2.03266e-19)
(0.810459 -0.766185 1.16143e-17)
(0.310542 -0.147919 1.48864e-17)
(-0.313899 -0.54635 1.49657e-17)
(0.970583 0.132237 4.31137e-18)
(0.719574 -0.766075 1.28882e-17)
(0.694134 -0.733544 1.7357e-18)
(0.900202 -0.520403 3.24638e-19)
(0.593992 -0.623216 -3.57238e-18)
(-0.0398706 -0.238344 2.19113e-19)
(0.31391 -0.313305 6.4694e-18)
(0.220978 -1.1376 1.03137e-17)
(0.719539 0.50528 6.07752e-19)
(-0.0158102 -0.229123 1.31395e-17)
(0.228401 -0.152984 1.45237e-17)
(0.295633 -0.772468 7.53138e-18)
(0.495326 -0.762217 2.36116e-18)
(0.241157 -0.484533 -4.617e-19)
(0.529238 -0.0258551 2.71586e-19)
(0.0813073 -0.280491 3.38395e-18)
(0.345056 -1.06775 1.11555e-17)
(0.304833 -0.637243 -1.81049e-19)
(0.579661 -0.339026 1.39523e-17)
(0.663116 -0.85069 1.2039e-17)
(0.0282362 -0.11502 1.90026e-17)
(0.123124 -0.370381 1.35415e-18)
(-0.154917 -0.0398175 1.42175e-17)
(0.822572 -0.572707 -1.3512e-18)
(0.163271 -0.520235 3.34567e-18)
(0.306639 -0.944717 -2.53767e-19)
(0.692031 -0.866639 3.01404e-18)
(0.359816 -1.04303 7.97583e-18)
(-0.7117 0.0748451 9.67037e-18)
(1.18292 -0.302922 1.5462e-18)
(-0.0659093 -0.131241 1.78334e-17)
(0.167557 -0.283249 4.22193e-18)
(0.867029 -0.636524 3.73338e-18)
(0.287532 -1.07891 2.58137e-19)
(0.758456 0.489456 -6.09051e-19)
(0.259753 -0.580743 -1.18991e-19)
(0.119251 -0.318839 -1.28461e-18)
(0.539135 -0.908069 1.24206e-17)
(0.91158 0.46153 3.06517e-20)
(-0.231304 0.211758 2.28493e-17)
(0.471328 -0.482592 1.74655e-19)
(0.657284 -0.634984 6.58729e-20)
(0.305352 -0.879462 -2.20867e-19)
(-0.226305 -0.034297 1.41074e-17)
(0.380804 -0.259538 2.57191e-19)
(-0.467981 0.0437687 1.09262e-17)
(0.642885 0.544188 2.28204e-19)
(0.0577936 -0.0235868 8.22099e-19)
(0.242314 -1.1253 8.14966e-19)
(1.2152 -0.318262 8.4865e-18)
(0.128171 -0.0776749 2.4874e-18)
(0.745073 -0.255901 5.99152e-18)
(1.05133 -0.392435 3.60506e-18)
(1.07834 0.13131 6.95428e-18)
(0.198249 -0.460417 3.41539e-19)
(0.39801 -0.797298 4.22329e-18)
(0.695824 0.780279 -3.65429e-19)
(0.517128 -0.884779 1.18542e-17)
(-0.040888 -0.948352 8.92478e-18)
(0.802818 -0.677259 2.08889e-19)
(0.450745 -0.309182 2.63609e-19)
(0.352997 -1.0428 7.5363e-18)
(-0.597159 0.0319771 9.40436e-18)
(1.4252 0.0420394 5.59203e-19)
(0.227038 -0.647326 3.74811e-18)
(0.165774 -0.220283 2.05242e-18)
(-0.0796427 -0.142958 1.50511e-19)
(0.283767 -0.771447 -9.86959e-20)
(0.23923 -0.556983 -1.7384e-19)
(0.594986 -0.0541465 1.70728e-19)
(0.312206 -1.09377 8.38467e-18)
(1.18779 -0.34364 5.00968e-18)
(0.0874449 -0.313544 3.41139e-18)
(0.874531 -0.607344 -3.85826e-18)
(-0.663717 0.0392867 1.0228e-17)
(1.22833 0.305479 5.65607e-18)
(0.765027 -0.708472 1.36971e-18)
(-0.579219 -0.2676 1.46422e-17)
(0.730975 -0.938348 7.5169e-18)
(0.368964 -0.29969 4.22755e-19)
(0.660198 0.504741 -8.37877e-19)
(0.958819 0.263729 4.81025e-18)
(0.108271 -0.123163 1.10646e-18)
(0.874515 -0.944664 1.09676e-17)
(-0.0382745 -0.242052 7.2645e-19)
(0.586386 -0.638593 1.07494e-17)
(0.272997 -0.728514 -1.10357e-19)
(0.282403 -0.22351 1.48324e-17)
(0.165855 -0.212157 1.53493e-17)
(0.369135 -0.922992 6.4778e-18)
(0.708766 -0.904995 1.13667e-17)
(-0.15966 -0.654074 3.6931e-18)
(0.0344281 -1.07879 4.30376e-18)
(0.347544 -1.02499 8.22769e-18)
(-0.403842 -0.950014 9.29229e-18)
(0.520605 -0.495018 1.23754e-17)
(0.310816 -0.866881 6.80929e-18)
(0.758382 0.884715 3.44832e-19)
(0.111986 -0.214005 1.59228e-17)
(0.496889 0.234599 9.97138e-18)
(1.42301 -0.0691184 3.40505e-18)
(0.842621 -0.681299 -1.79269e-18)
(-0.026332 -0.19407 1.56484e-17)
(0.663126 0.847598 2.25011e-19)
(0.178033 -0.450245 -2.83678e-19)
(0.708994 -0.936312 1.13537e-17)
(0.736402 -0.740842 1.39602e-18)
(0.575351 -0.877273 4.89944e-18)
(0.738342 -0.808051 1.64241e-18)
(0.102071 -0.361028 1.13961e-18)
(0.241058 -0.660298 -2.6997e-19)
(-0.0889152 -0.196441 1.50399e-17)
(0.126783 -0.766367 -6.5675e-18)
(0.52923 -0.914945 9.90694e-18)
(-0.729101 -0.127628 1.30872e-17)
(0.986262 0.937972 1.07231e-19)
(0.634061 -0.460623 7.6322e-18)
(0.344592 -1.02952 7.76957e-18)
(0.196434 -0.524287 -1.1114e-19)
(1.02038 -0.0133113 -1.10634e-18)
(0.492113 -0.348483 3.71604e-20)
(-0.0878634 -1.01275 6.90641e-18)
(0.225468 -0.632521 -2.50326e-19)
(1.13697 -0.322806 3.17278e-18)
(-0.474215 -0.574931 1.37685e-17)
(0.69517 -0.578928 8.38081e-19)
(0.857877 -0.716298 3.43557e-19)
(0.197715 -0.982107 -3.02099e-19)
(0.176867 -1.04519 -2.67238e-19)
(-0.416948 -0.0149542 1.24909e-17)
(-0.33788 -0.0464315 1.38388e-17)
(0.206338 -1.24636 9.00839e-18)
(1.16107 -0.427577 9.50562e-18)
(-0.241712 -0.127726 1.46233e-17)
(0.0261557 -0.128989 1.68823e-20)
(0.213154 -0.861192 -1.66386e-19)
(0.828097 -0.740432 -8.00191e-18)
(0.269885 -0.0586761 -2.21947e-18)
(1.01091 -0.366151 1.02987e-17)
(0.5975 -0.139731 4.81291e-19)
(0.815875 -0.987209 8.44482e-18)
(0.718351 1.0085 3.2464e-19)
(0.0647361 -1.12591 8.37895e-19)
(0.821855 -0.709732 9.51368e-19)
(0.134653 -0.441079 1.17226e-18)
(0.345908 -0.943827 7.74045e-18)
(0.358025 -0.954751 8.24339e-18)
(0.190826 -0.590022 -2.38773e-19)
(0.621425 0.819534 -2.24294e-19)
(0.528758 -0.946875 5.00872e-18)
(0.267482 -0.480941 2.84144e-18)
(0.465103 -0.446774 -7.52745e-19)
(0.449991 -0.890199 6.46776e-18)
(0.161004 -0.234935 1.5316e-17)
(0.850102 -1.00107 9.9092e-18)
(0.214689 -0.814047 -1.05102e-19)
(1.12424 0.962945 3.49834e-18)
(0.865686 1.0742 5.42481e-19)
(0.83439 -0.846951 1.76152e-18)
(0.111299 -0.183323 1.45091e-17)
(0.0441711 -0.139114 -2.6052e-19)
(0.773029 -0.821996 9.82339e-18)
(1.1563 0.296421 5.94385e-18)
(-0.0193317 -0.193256 1.43596e-17)
(0.643252 0.92403 2.85147e-19)
(-0.0279862 -1.11939 1.88674e-18)
(-0.0649477 -0.0728326 2.28203e-17)
(0.10776 -0.434707 1.79324e-18)
(-0.565604 -0.0501677 1.30109e-17)
(0.177665 -0.512149 2.29416e-19)
(0.858615 -0.702263 1.27305e-18)
(-0.589356 -0.446077 1.42848e-17)
(-0.0960664 0.0105314 5.51442e-18)
(-0.174462 0.324949 9.9849e-18)
(0.262161 -0.240893 5.99294e-19)
(0.314296 -0.669858 3.45093e-18)
(0.205071 -0.735294 -1.56681e-19)
(-0.0756417 -0.204375 1.42946e-17)
(0.75785 -0.602343 1.11212e-18)
(-0.0129856 -0.146631 9.9709e-19)
(0.373157 -0.920654 8.24741e-18)
(-0.373093 -0.0366091 1.40147e-17)
(0.693401 -0.768328 9.21056e-18)
(-0.30549 -0.130529 1.51552e-17)
(0.333193 -0.519753 1.09099e-17)
(-0.479353 -0.0934831 1.31842e-17)
(0.62866 0.877264 -2.85353e-19)
(0.634642 -0.515766 -3.21062e-21)
(-0.24055 -0.278433 1.36432e-17)
(0.174064 -0.573796 7.91821e-20)
(0.0996588 0.0330873 2.24245e-18)
(0.662961 -0.184435 -4.1256e-20)
(-0.125182 -0.474212 -2.64184e-18)
(1.08029 0.594248 2.42128e-18)
(0.905483 -0.746674 7.03199e-19)
(1.07093 1.23492 2.5728e-18)
(0.19744 -0.704122 -2.82837e-19)
(0.298015 -1.05171 8.41265e-18)
(-0.509123 -0.481232 2.77367e-18)
(1.12461 -0.32239 4.36935e-18)
(-0.0137032 -0.124635 1.12921e-18)
(-0.0168681 -0.134592 1.46789e-18)
(1.41416 0.0685935 3.68549e-18)
(0.0720571 -0.27374 2.39237e-18)
(0.394037 -0.36032 1.29299e-19)
(0.240694 -0.186857 2.23925e-19)
(-0.506226 -0.104633 1.37876e-17)
(0.0692979 -0.326828 2.50034e-18)
(-0.326895 -0.254881 1.28173e-17)
(-0.579349 -0.92235 7.94461e-18)
(0.173888 -0.653358 -3.10234e-19)
(0.33423 -0.891649 8.42119e-18)
(0.839349 -0.588706 7.39025e-19)
(0.735208 -0.657105 8.32727e-18)
(0.470977 -0.112272 7.0052e-18)
(0.67559 -0.612204 -1.11987e-17)
(0.403009 -0.840526 5.68469e-18)
(-0.650636 -0.157278 1.41058e-17)
(0.418134 -0.83611 5.2695e-18)
(-0.0279676 -0.217707 1.87991e-19)
(-0.111353 -0.197734 1.12735e-17)
(0.273325 -0.533463 2.65449e-18)
(0.111568 -0.933471 -2.61354e-19)
(1.14734 1.29088 -5.90864e-19)
(0.780891 -0.661146 8.08702e-18)
(0.850309 -0.636165 -2.90486e-18)
(0.0421148 -0.204765 1.09604e-17)
(0.650701 0.891624 -1.43434e-19)
(0.139537 -0.500021 5.11328e-20)
(1.06427 -0.411984 9.28342e-18)
(0.0701078 -0.299838 1.26945e-17)
(0.960663 -0.524728 -3.21651e-19)
(0.0711826 -0.371081 2.52388e-18)
(-0.503707 -0.754363 1.16088e-17)
(0.263061 -0.888034 4.71917e-18)
(-0.00470636 -1.09006 -1.86982e-19)
(-0.0732099 -0.143822 -1.45086e-18)
(0.797343 -0.349058 5.36931e-19)
(0.611233 1.05098 3.4124e-19)
(0.0436032 -1.04618 -3.56367e-19)
(-0.163465 -0.0647046 1.21915e-17)
(0.372487 -0.732851 8.68085e-18)
(0.162091 -0.633855 -4.47991e-19)
(0.127488 -0.885623 -1.80849e-19)
(-2.54356 1.19886 4.50298e-18)
(0.163658 -0.826295 5.17535e-18)
(0.678863 1.16998 2.49527e-19)
(0.982185 -0.122076 -6.49702e-19)
(0.342299 -0.72845 3.9862e-18)
(0.584687 -0.916926 8.45841e-18)
(0.366874 -0.150689 9.44713e-18)
(0.139142 -0.554599 -1.08062e-20)
(-0.288587 -1.00072 7.32686e-18)
(-0.0157861 -0.123837 1.16154e-18)
(-0.60409 -0.19945 1.33924e-17)
(-0.300233 -0.127281 1.21139e-17)
(0.962219 0.972377 3.23934e-18)
(0.0547965 -0.401093 1.73323e-18)
(0.146623 -0.800576 -2.69153e-20)
(-0.0347091 -0.183734 1.08061e-18)
(0.0382166 0.0139231 3.07076e-19)
(0.834627 1.3198 6.46242e-19)
(0.953564 -0.557178 7.33956e-19)
(-0.524326 -0.0824009 1.39195e-17)
(0.965506 -0.576221 6.64513e-19)
(0.29599 -1.09691 8.73741e-18)
(0.606347 -0.887967 5.4958e-18)
(0.587487 0.940361 -3.17627e-19)
(1.31224 -0.105442 7.65734e-18)
(-0.207354 -1.0817 1.68266e-18)
(0.928366 -0.364007 -4.30296e-18)
(-0.509077 -0.158101 1.52714e-17)
(0.149276 -0.768306 -1.30128e-19)
(0.518433 0.23245 7.50488e-18)
(-0.480269 -0.0755521 1.47934e-17)
(-0.392261 -0.137497 1.15459e-17)
(0.913362 -0.322689 1.19356e-18)
(-0.657609 -0.479253 1.34628e-17)
(0.133478 -0.608777 -4.45196e-19)
(0.998387 1.56496 2.17491e-18)
(0.149946 -0.476859 6.43801e-18)
(0.317534 -0.562402 1.02421e-17)
(0.20837 -0.424232 6.96422e-18)
(0.120776 -0.49629 4.64548e-19)
(-0.543028 -0.103917 1.39663e-17)
(0.144729 -0.712921 -2.21649e-19)
(0.153294 0.612608 -1.74513e-18)
(0.662322 -0.270637 -2.32677e-19)
(0.149398 -0.0999878 5.31215e-19)
(0.117066 -0.643635 7.32114e-18)
(0.464577 -0.463127 7.76637e-18)
(0.537903 0.307618 -2.06772e-18)
(0.560123 1.03217 -6.22251e-19)
(0.058023 -0.699667 6.89226e-18)
(0.426211 -0.105625 1.00849e-17)
(-0.572452 -0.0921832 1.4278e-17)
(0.611979 1.16626 -2.98433e-20)
(1.05836 -0.324261 7.06543e-18)
(-0.738737 -0.14299 7.81691e-18)
(0.92228 -0.370311 -2.51646e-18)
(0.12264 -0.549382 6.61175e-19)
(-0.702335 -0.345329 1.41304e-17)
(-0.278079 -0.285236 3.77551e-18)
(0.566376 0.968487 -7.20901e-19)
(1.14729 1.83584 1.89307e-18)
(0.638146 -0.374428 -6.26323e-19)
(0.0726521 -0.485693 1.59845e-18)
(-0.539637 -0.049332 1.40846e-17)
(-0.329943 -1.02628 3.29919e-18)
(-0.364001 -0.107004 5.44131e-18)
(0.0598663 -0.326096 2.82349e-18)
(0.623387 0.878931 7.06391e-20)
(-0.574594 -0.0448688 6.005e-18)
(0.784908 -0.316957 -7.25861e-19)
(0.344093 -0.580586 8.38276e-18)
(1.10136 -0.286415 -7.33707e-19)
(0.916801 0.161576 -1.42664e-18)
(0.138025 -0.690833 -9.26781e-19)
(0.704871 1.31667 4.5525e-19)
(0.695412 0.747515 1.38503e-19)
(0.925932 -0.410514 1.03904e-17)
(1.05788 1.95991 5.25721e-18)
(0.0621951 -0.313879 2.57232e-18)
(0.119295 -0.601417 -1.12599e-18)
(0.801205 0.78538 -2.97675e-19)
(0.00627197 0.000919538 6.14662e-19)
(-0.0880138 -0.766389 2.23273e-18)
(0.0321391 -0.438101 9.59923e-19)
(0.852072 1.54898 6.91134e-19)
(-0.597363 -0.108338 1.37695e-17)
(0.0513384 -0.377777 2.26466e-18)
(-0.758829 -0.319263 3.34887e-18)
(0.32336 -0.337134 1.16833e-17)
(-0.541006 0.146655 8.19835e-18)
(0.723586 -0.327049 4.88467e-19)
(-0.761432 -0.0811546 8.8074e-18)
(-0.621119 -0.13846 1.42923e-17)