/*--------------------------------*- C++ -*----------------------------------*\
  =========                 |
  \\      /  F ield         | OpenFOAM: The Open Source CFD Toolbox
   \\    /   O peration     | Website:  https://openfoam.org
    \\  /    A nd           | Version:  8
     \\/     M anipulation  |
\*---------------------------------------------------------------------------*/
FoamFile
{
    version     2.0;
    format      ascii;
    class       surfaceScalarField;
    location    "0.25";
    object      alphaPhi0.water;
}
// * * * * * * * * * * * * * * * * * * * * * * * * * * * * * * * * * * * * * //

dimensions      [0 3 -1 0 0 0 0];

internalField   nonuniform List<scalar> 
2805
(
-2.02311e-06
8.70002e-07
9.31646e-07
-6.38383e-07
-1.34579e-06
-2.27761e-08
2.61934e-08
6.93029e-09
-1.06801e-08
-3.46019e-09
-8.23412e-07
6.74166e-07
-1.3929e-08
1.30448e-08
-4.32075e-07
-9.03055e-10
-5.72596e-08
1.57399e-07
-7.20485e-07
-1.08988e-08
-1.43127e-07
1.24609e-07
-8.66828e-08
-1.84307e-06
-9.07389e-07
0
4.55881e-05
-6.54933e-05
-8.50434e-06
4.31185e-06
-5.135e-06
-4.02955e-14
-1.99742e-11
1.31946e-11
-4.11545e-14
1.76662e-16
0
4.48083e-05
-6.03128e-07
4.0494e-08
-0.000216492
0.000403039
1.41827e-07
-4.38996e-06
0.00142386
0.00149731
-0.00294114
1.34635e-07
-8.88921e-07
-3.23794e-07
3.21299e-09
-4.41071e-12
-3.20732e-09
-6.31595e-08
3.09447e-08
5.78034e-08
7.76961e-09
-2.01661e-09
-1.67585e-08
9.15149e-10
1.91364e-08
-1.42883e-07
-1.56632e-07
-3.01583e-07
5.65704e-07
-2.49688e-08
1.14645e-06
-1.01029e-06
-0.000232274
-0.000494569
0.00117019
-7.75934e-10
2.65377e-09
-4.8279e-07
2.59007e-08
-6.42721e-07
3.08056e-05
-3.03483e-05
1.875e-07
-9.57049e-07
-6.73217e-07
6.92928e-07
-6.94932e-13
3.94213e-14
9.06409e-07
-4.65995e-06
-3.83982e-07
4.63151e-07
0.000896222
-0.0010609
1.79806e-07
1.26602e-07
-2.54058e-07
0.00153643
-0.000123888
8.34727e-09
-8.6323e-13
-2.13393e-09
0
0.000407465
-0.000243402
0.000166579
9.28751e-05
-0.000313104
0.000449968
-0.000342877
-0.000132162
2.21645e-07
1.02138e-08
-1.81842e-07
0.00171765
-0.00277194
0.00105428
-0.00262469
0.00122859
0.00139609
8.8678e-17
1.20308e-17
-2.65999e-16
0.00143869
-8.0108e-07
0
-4.70059e-19
8.73315e-17
0.000255246
-0.000341303
9.45992e-06
-6.48716e-07
0.000316246
5.29864e-05
-3.73617e-07
5.35112e-05
-3.4394e-14
3.18223e-16
2.69065e-15
5.78716e-14
-1.08951e-12
-6.46821e-17
-5.81255e-14
-5.10831e-15
-3.36052e-15
-0.00113725
0.000704072
0.000433198
5.46795e-19
-2.94168e-18
-3.21741e-07
2.49302e-07
-2.8789e-16
5.87535e-18
0
-1.83515e-11
2.13688e-11
0.000128558
-1.27637e-15
9.40587e-16
-5.02576e-06
4.1657e-06
5.97192e-08
-6.77428e-17
2.74369e-19
-0.000240687
4.80414e-10
3.15583e-06
6.30354e-10
-1.18398e-11
7.4281e-07
-1.52697e-06
7.40017e-07
4.79734e-09
-2.63176e-07
-3.92594e-10
-5.22791e-10
-5.77302e-07
4.74124e-07
-1.15556e-14
-2.97793e-14
-4.49825e-15
2.73458e-14
6.53855e-10
4.57795e-09
-0.000867788
0.000398203
0.000469773
0.00196975
-0.000486924
1.14047e-07
-6.39742e-15
-1.25746e-10
-4.97594e-07
-2.33728e-09
1.95814e-09
-0.00090704
0.000244321
-0.000646661
-7.20454e-15
3.98843e-16
1.41495e-10
1.27562e-11
0.000250572
3.70518e-05
-8.89803e-06
-9.44313e-06
-0.00114603
0.00127244
-1.68019e-20
1.19468e-18
-7.50354e-10
6.17102e-08
1.63184e-12
-1.69983e-12
-1.71367e-13
-2.69139e-13
5.8461e-07
7.54218e-08
-4.6737e-09
2.40995e-08
-9.03457e-09
0.000807734
3.65207e-13
-3.10104e-12
6.61762e-12
1.40389e-11
-2.30107e-07
4.65835e-05
-1.05416e-11
1.26342e-12
9.85434e-12
1.38495e-05
-4.8572e-05
4.447e-05
-1.98641e-06
1.93901e-06
4.84229e-16
-8.62472e-15
0.000221216
-1.18225e-09
3.82502e-10
7.76034e-05
4.18633e-05
-8.64849e-07
0.000447633
-0.000951445
0.000504939
-6.70134e-08
0
0.000906601
-0.00140801
1.17083e-08
1.76953e-16
-2.78061e-19
8.74953e-16
6.38912e-14
-1.17933e-13
-2.15774e-07
0.000143124
-0.000143176
-0.00345713
0.00328815
0.000168987
-0.00173024
-2.58956e-07
1.46757e-18
1.61065e-19
1.97172e-06
-2.00118e-06
0
6.29197e-08
-1.75427e-06
3.03341e-11
-2.81124e-10
0.00029347
-0.00103866
0.00280341
-0.00176475
-4.57396e-10
-7.82602e-10
1.3922e-05
-1.79631e-08
-7.22383e-08
7.58984e-08
-0.000324968
0.00223193
0.000113158
-6.16047e-05
5.24984e-07
-2.97071e-08
-8.15803e-08
5.03877e-09
-1.22272e-07
1.68707e-08
-2.61796e-16
0.000946233
-0.000945699
-0.00083367
0.00075005
-3.40432e-10
1.37088e-07
-0.0017268
0.00068814
-3.05106e-08
4.66872e-06
3.75636e-19
4.59472e-18
2.95231e-16
-1.47725e-15
3.79187e-07
0.00039782
-0.00345713
9.89954e-06
-9.9691e-06
1.29811e-06
1.28888e-05
2.71007e-08
-1.99008e-06
-6.78316e-08
0.00295378
0.000334369
-5.06548e-09
-9.08287e-10
2.84025e-10
-0.000594071
2.20531e-05
0.000572022
-0.000406744
-0.000321702
7.01616e-07
1.63613e-06
-0.00352921
7.2078e-05
-0.000490772
0.000351624
0.000139149
0.000131871
1.59464e-08
-3.99536e-06
0.000973779
0.00198
-3.81506e-09
-1.64048e-07
0.000229753
6.8957e-10
3.07523e-05
2.85333e-08
7.98537e-09
-9.71895e-12
-7.14714e-13
3.66771e-13
-6.86231e-08
0.00048123
-2.46038e-08
-0.000671402
0.000764358
5.33643e-08
-1.79964e-09
3.00738e-12
-2.47988e-14
3.47262e-07
1.33665e-06
0.000826593
-0.000233364
-4.91665e-08
2.59133e-19
1.75593e-16
5.61577e-10
-1.17098e-10
-2.09617e-10
-3.00371e-06
6.29894e-07
-0.00108371
-0.00168822
6.24035e-07
-0.000311361
9.46768e-06
3.64327e-07
-0.000260376
0.000101272
-1.21221e-07
-4.65338e-09
-8.3075e-05
4.59197e-05
-2.08108e-08
-2.54472e-08
6.06935e-07
-6.63017e-10
-5.02217e-10
3.6311e-07
-5.85788e-07
-9.94119e-06
-0.00352921
-4.82032e-06
5.3507e-06
4.23147e-08
0.000153589
0.000374927
0.000157518
-3.65006e-07
0.00183252
-0.00156917
-0.000999516
0.000180599
-5.40459e-05
-8.86015e-07
6.52171e-06
0.00048349
1.7472e-06
-2.53002e-07
0.00147204
-0.00144237
-1.44527e-05
-9.60552e-08
-0.00360189
7.26742e-05
0.000275159
-1.92488e-08
3.95213e-09
-1.47059e-10
-5.39368e-07
3.39064e-09
9.47661e-05
2.72751e-11
6.33539e-19
-5.63434e-18
-6.1382e-08
2.48987e-06
-7.02132e-12
-4.88877e-12
-1.50008e-07
-9.74786e-05
0.000117933
2.16812e-10
-2.04573e-08
5.05744e-06
4.86151e-07
1.73267e-05
-8.25282e-10
6.93223e-11
8.19228e-12
-9.56545e-10
1.4477e-09
5.49312e-08
-1.13647e-06
0.000334189
0.00137776
-0.000363624
-6.30134e-08
8.3567e-16
7.59468e-15
-1.8966e-14
0.000289214
1.68919e-07
0
2.20683e-05
1.76928e-09
-8.4914e-11
9.24709e-06
-2.25754e-06
0.000116694
-6.70602e-05
-0.00360189
2.59471e-19
-4.92743e-22
0.00135627
-0.00114329
4.94541e-11
1.51949e-09
0.000328201
0.00112697
0.00115815
-0.000572111
0.00106724
-4.85421e-06
1.00781e-05
-9.83384e-10
-3.02049e-12
-1.48719e-12
-0.000214219
-0.0024078
-0.00119408
-8.40595e-09
1.93445e-08
0.00021259
-1.68034e-09
-9.98026e-10
-6.06579e-10
1.72648e-10
8.65108e-11
5.18352e-11
-0.000360812
0.00141809
-0.00107643
-5.71286e-07
4.84524e-06
-1.60165e-08
3.20031e-05
-4.44454e-14
1.64069e-14
2.42546e-11
1.5051e-09
2.14205e-09
4.02677e-11
-8.15302e-11
6.96714e-06
-0.000130579
9.78169e-13
-1.39661e-12
9.00335e-06
0.000814558
0.000255083
-0.000194798
-0.00049039
-0.000328557
-0.00102716
0.00141172
-0.000364659
-1.7593e-16
7.11824e-17
7.55951e-16
-9.27686e-15
4.98488e-06
6.12219e-08
-7.50405e-07
0.00024072
0.00153792
-0.000996978
-0.0024078
-9.97551e-15
-4.17357e-11
-8.77541e-09
0.000448384
-0.000559028
-8.88867e-10
5.46457e-11
-0.00280341
0.000395607
6.47285e-06
-6.92524e-07
0.000953136
4.8959e-06
-1.78029e-05
-8.05856e-11
-0.000239271
0
2.86806e-09
-9.1633e-11
1.97588e-12
-3.41689e-05
-0.000245735
0.000597359
0
-6.61723e-10
0.00203574
-0.00175881
-2.03548e-13
-1.12596e-12
0.000178669
5.08535e-11
-1.93138e-12
-1.01741e-23
9.55678e-21
-4.26637e-06
9.40847e-06
-0.000324109
6.05941e-06
-1.61845e-05
9.97825e-06
-2.60557e-06
1.19493e-12
4.47546e-11
0.000376357
-0.000242782
-0.000421033
-1.63137e-19
2.37733e-16
1.21733e-10
-1.93702e-10
8.0469e-11
-1.68142e-09
0
-1.79286e-09
9.63607e-07
-1.56253e-07
5.06145e-06
1.98137e-06
0
1.03967e-12
1.22731e-05
0.00011115
9.75738e-05
0.000312724
-0.000558459
-1.18945e-06
1.60874e-07
7.56517e-10
-5.62744e-17
-2.41703e-16
0.00124416
0.000115202
-4.67001e-10
-8.62871e-10
-8.73115e-10
0.000262925
-7.63221e-19
3.79006e-20
0
1.14739e-10
5.45673e-06
1.83195e-10
-1.42743e-12
2.75121e-10
-1.29348e-08
5.50308e-16
1.95478e-07
-5.78847e-08
2.15039e-11
3.92925e-11
2.82374e-05
2.85329e-11
1.46289e-05
2.56612e-09
-3.34771e-10
0.000358111
0.00162745
1.48695e-12
-1.22307e-11
-6.04626e-21
2.8054e-19
3.72824e-20
-1.76392e-20
3.56858e-22
-1.63848e-19
1.18861e-09
1.05159e-09
-0.000419892
0.000559041
2.05476e-12
-1.34083e-14
0.00179325
8.43961e-13
-1.7389e-12
-0.00113515
0.00236784
-0.0012327
7.04103e-06
-1.00699e-07
0.000327476
-0.000316552
-9.29664e-22
2.22706e-20
0
3.67629e-11
-1.18551e-12
1.40768e-14
3.68259e-14
1.85937e-17
-4.74591e-18
3.0921e-10
1.77244e-05
6.1743e-11
1.37566e-05
-1.68331e-06
8.75914e-11
-7.91978e-11
1.29771e-07
1.14098e-12
-3.12185e-14
-2.34777e-08
-6.09251e-05
5.86694e-24
2.59032e-19
-2.24435e-11
1.35102e-12
8.39753e-09
-2.73356e-07
-7.80036e-15
5.09524e-15
8.19576e-10
3.02478e-10
6.32902e-21
2.45128e-21
3.53067e-23
-1.24817e-13
0.000891785
-8.47843e-08
0.000393364
2.05684e-14
1.03258e-12
-1.64226e-10
7.84923e-19
8.09428e-12
1.06523e-05
1.35063e-13
-1.79268e-11
0.000337368
1.85349e-20
-1.05595e-20
2.24589e-09
1.16755e-07
1.34219e-12
3.93917e-12
2.54459e-11
-9.18965e-10
2.45163e-11
3.62606e-22
-0.00086092
-0.000865878
3.6031e-13
-4.32376e-13
0.000346004
-9.32746e-06
-3.63975e-07
0.000973779
1.90368e-17
-1.23213e-18
6.04482e-14
-1.66339e-14
-1.25829e-13
1.02335e-22
6.17611e-11
2.34894e-12
-5.69085e-11
0
3.62077e-13
3.25746e-06
4.16619e-06
1.31196e-06
5.12367e-12
1.15709e-11
1.08934e-22
-1.70376e-21
3.05071e-16
-3.24441e-16
1.41368e-14
-1.28311e-16
2.68944e-14
1.20817e-12
-1.23919e-12
-1.20359e-10
1.89769e-16
6.11782e-08
1.36657e-05
7.31801e-15
-3.55109e-05
2.09269e-10
1.22979e-11
3.30596e-14
-1.68984e-16
-5.34011e-11
-2.7094e-09
-0.00101345
0.000845155
2.57098e-11
-1.59952e-11
-1.37867e-13
2.20873e-14
1.0663e-18
1.59758e-18
5.7671e-16
1.40278e-14
-1.41896e-14
-1.56667e-14
3.03792e-09
1.57936e-14
6.17685e-16
2.33199e-06
-1.68758e-07
-2.16602e-06
8.32042e-07
3.76896e-11
7.75591e-05
-1.13036e-12
3.93523e-13
-3.70342e-09
0.00049015
0.000107209
1.56647e-22
-8.60148e-23
3.73358e-15
3.24927e-13
-9.20486e-13
3.143e-06
4.74987e-20
-1.85149e-20
6.87345e-15
3.04717e-13
0
-5.3432e-11
-8.85584e-10
2.82374e-13
4.6093e-07
1.82789e-14
-5.92448e-16
-8.53093e-15
1.44824e-16
3.70351e-15
1.37012e-15
-1.45996e-24
1.89164e-23
1.72343e-12
2.25251e-16
1.90268e-11
-9.53054e-13
2.05765e-06
-2.4279e-06
1.19778e-17
1.19593e-06
0.000337191
2.20483e-21
8.8101e-23
-3.52492e-23
5.58303e-13
-8.8267e-12
8.66672e-08
-6.42566e-05
1.70837e-13
2.90526e-12
2.10921e-14
-1.06707e-13
3.15189e-05
-2.19735e-09
5.51591e-16
6.79036e-08
-8.45591e-09
1.17247e-19
-0.00102031
0.000779653
6.76546e-07
-1.6616e-09
5.88824e-24
4.71514e-24
-1.85836e-23
4.943e-22
2.97117e-09
9.65181e-12
1.88308e-19
2.17995e-25
1.4913e-13
3.47352e-13
-2.14558e-14
3.18139e-15
2.70119e-24
-2.14244e-25
-1.09133e-15
1.55314e-16
-1.72896e-11
2.74088e-08
1.72456e-16
2.10812e-15
-1.07157e-09
1.77316e-16
-1.21851e-18
9.16098e-16
-4.05915e-16
1.03608e-25
9.97425e-20
-1.25019e-20
1.53021e-14
-0.000285312
0.000598036
2.28261e-18
7.894e-17
0.000320485
1.45406e-12
3.00436e-13
9.27749e-06
-3.37727e-26
1.54751e-24
-1.3698e-16
1.40826e-18
8.84179e-14
6.07372e-15
1.53447e-13
-1.14564e-13
6.17746e-16
-2.38629e-18
2.31922e-13
-1.60828e-13
2.20986e-16
2.71652e-21
3.74796e-09
1.26643e-22
-4.55919e-23
3.85924e-24
2.13354e-14
5.69966e-08
8.85712e-08
3.48681e-26
2.29029e-16
-3.1282e-16
-2.6235e-18
-2.14711e-16
1.4132e-16
8.49643e-18
1.21585e-10
1.71592e-09
6.14527e-09
-4.79429e-09
-4.58907e-12
1.39726e-12
1.40157e-13
1.83474e-14
9.19415e-14
-3.50271e-17
2.40002e-18
2.32875e-09
2.68594e-08
6.99825e-15
-2.41472e-14
7.74694e-15
1.30515e-06
-1.11658e-07
-7.10677e-26
1.84469e-25
1.78133e-11
4.77259e-08
1.28663e-08
1.68016e-13
2.25539e-14
1.28127e-13
-1.398e-14
0.000368469
-0.000653781
-1.61865e-13
8.5268e-15
-4.17069e-14
4.45127e-16
5.0812e-18
-2.44813e-16
2.03414e-17
-4.81796e-05
-0.000199494
-0.000207857
0.00091193
-1.80997e-25
2.65226e-25
1.75284e-12
-5.82468e-11
8.99093e-17
3.28125e-20
-9.04358e-21
2.12194e-25
1.11793e-15
-5.22974e-16
-1.71617e-15
6.82518e-16
-5.45369e-15
-1.13753e-15
4.31871e-17
-1.6268e-15
0.000200083
0.000397953
-0.000174851
1.12499e-14
3.85133e-18
-2.10602e-06
7.44646e-22
7.59562e-07
4.52063e-12
-3.09065e-17
-8.89644e-10
9.94764e-07
1.08242e-15
3.92115e-17
5.69128e-20
5.68417e-16
1.80403e-22
-5.42787e-23
2.1488e-11
-2.2329e-11
2.2192e-25
-8.41126e-26
-2.27127e-14
3.28932e-16
-6.44883e-08
2.47333e-18
-1.17491e-21
3.64358e-14
2.87878e-14
1.56042e-14
1.43264e-16
-3.14167e-27
6.31256e-27
1.68437e-09
4.70467e-24
-4.25221e-18
3.78321e-21
-8.00075e-16
-1.39785e-18
1.75317e-19
-1.43409e-25
3.76096e-22
-7.11469e-17
8.47617e-17
-0.000543825
4.82533e-15
4.51199e-15
3.1289e-17
-2.59226e-05
0.000841098
-1.90629e-20
-6.19456e-18
1.56508e-20
5.72106e-27
-1.00928e-08
9.06801e-09
3.22165e-28
1.75832e-19
4.13205e-21
-8.78689e-22
-1.39125e-23
-2.1309e-20
2.36945e-14
-1.73297e-13
-0.000906156
0.000698299
1.58118e-15
-6.15966e-16
-8.4146e-12
4.6386e-10
-1.92358e-17
1.38198e-16
-2.95938e-11
1.52666e-10
-1.44015e-25
2.55973e-28
1.18098e-15
5.156e-18
-1.50596e-15
-2.54919e-11
2.73874e-13
1.5171e-16
1.04549e-26
6.79223e-27
1.22467e-10
2.74439e-11
1.3049e-06
8.76062e-22
-2.95682e-23
0.000661149
0.000250781
8.52338e-18
-2.69504e-20
-3.60855e-17
-1.19945e-08
9.67318e-16
2.31113e-16
1.74099e-11
5.28379e-15
1.31621e-09
-2.77489e-16
1.33665e-16
1.27845e-28
1.96262e-11
-3.04084e-14
8.65409e-15
-2.84696e-27
1.87765e-26
-3.2276e-17
2.87629e-18
-3.51689e-09
-8.121e-23
5.51191e-17
-2.71041e-25
1.39427e-17
0.000690233
5.90903e-19
7.03815e-20
-3.00721e-18
3.91953e-23
6.60853e-23
-2.27434e-23
6.47616e-16
-5.83818e-17
1.22516e-17
1.5484e-17
1.46095e-26
-2.71709e-25
-2.7653e-18
2.41257e-20
3.60346e-17
-3.67935e-31
2.70074e-24
1.69463e-20
2.05469e-19
-5.99959e-19
1.01599e-24
0
-4.54931e-17
2.93805e-25
-1.43949e-25
-2.64111e-20
1.30096e-21
-5.29332e-14
1.34761e-16
-2.36223e-16
-1.37822e-12
-7.96228e-16
2.25939e-18
-4.39862e-11
-5.84861e-17
8.51379e-18
6.18461e-27
-0.000126501
9.15897e-17
2.1924e-17
6.95933e-29
1.55557e-18
-1.04734e-18
3.44831e-18
6.09424e-17
-2.54375e-18
-1.4837e-16
1.06054e-16
7.80761e-07
-3.30206e-16
-2.58682e-24
-2.86666e-17
1.69599e-09
-1.86268e-26
2.14306e-25
-6.19435e-18
1.85179e-20
-4.62201e-15
3.75644e-16
-1.23671e-21
4.20908e-23
-1.22223e-22
-2.63641e-28
3.27457e-28
2.6765e-28
-1.02131e-28
7.37325e-18
6.05352e-14
2.86797e-28
-1.14984e-28
0.000832332
-0.000273088
-0.000559244
2.73773e-20
-4.50912e-24
-5.61781e-18
0.00022058
3.50129e-15
-1.21877e-08
-1.60925e-18
3.13139e-19
2.7139e-21
-2.23619e-20
1.58988e-22
-1.39501e-18
1.83107e-12
-1.7297e-12
2.30202e-19
2.94456e-18
1.24322e-19
-1.07879e-16
4.79481e-17
-8.15193e-23
1.44426e-25
1.14893e-19
3.25971e-20
1.09666e-07
-1.90523e-20
2.91138e-23
4.04863e-21
2.34882e-23
-1.42402e-24
3.16365e-19
9.42092e-23
3.1152e-18
-2.03356e-18
2.47095e-20
-2.61467e-19
4.68263e-26
0.000438546
0.000393786
3.42641e-18
2.54797e-18
1.5961e-25
-3.55663e-26
8.65266e-23
3.36843e-24
-2.15278e-26
0.000768371
-0.000445685
-2.03306e-11
-4.38551e-30
7.06155e-30
-9.38828e-18
-1.65251e-16
2.89769e-17
7.46911e-30
2.94181e-07
-3.48563e-05
-2.95393e-23
3.07153e-27
6.25618e-10
-3.33512e-10
-7.55132e-18
-2.53549e-23
1.11948e-27
1.40181e-18
-0.000858104
0.000242962
0.000615142
2.98352e-20
1.86507e-31
5.03123e-19
6.08304e-30
4.33343e-24
1.27553e-29
3.91652e-30
-3.31191e-26
-7.17818e-22
3.55345e-28
-2.42578e-28
-1.69589e-17
-1.21042e-22
7.10935e-23
4.89541e-23
-4.40248e-08
-0.000559041
0.00066625
2.07729e-18
-1.36578e-19
-6.83253e-21
5.63582e-20
-3.39013e-18
2.76557e-19
7.36072e-20
-2.75701e-29
2.49165e-28
8.70477e-12
0.000196955
-0.000845953
0.000648998
1.25524e-12
-0.00108762
0.000913933
-1.01793e-24
8.76186e-05
-0.000948538
1.17417e-31
1.93558e-05
-1.56668e-07
6.02412e-30
1.65193e-32
-3.88775e-31
-4.70323e-17
4.76305e-18
6.71557e-21
-1.40216e-18
6.92096e-21
-6.95046e-21
5.43131e-21
1.39751e-19
-7.5153e-21
-4.40792e-17
2.67498e-19
-1.30916e-20
7.25024e-22
-3.61922e-30
3.6461e-30
4.1821e-21
-0.000258256
0.000656209
3.64173e-26
-2.23632e-27
-2.49684e-09
6.3361e-24
-6.22857e-25
3.64204e-21
4.52447e-20
-2.75085e-23
6.89167e-27
-3.72927e-29
1.13125e-12
-5.06526e-13
5.46198e-14
4.93989e-17
-1.43796e-07
-3.33237e-07
1.62096e-07
-3.69196e-08
3.47168e-30
2.0686e-22
1.61807e-23
1.26833e-22
-9.38007e-29
0.00061925
-3.73972e-22
6.22954e-25
-1.5229e-23
8.14024e-25
4.65561e-29
7.80812e-21
-2.73526e-22
-1.05981e-17
4.63106e-26
-4.39995e-14
-4.39939e-18
1.81882e-13
2.49224e-24
1.36472e-22
-6.01455e-22
5.15794e-10
2.26852e-20
6.62183e-21
-0.00101008
0.000835251
-3.3028e-17
2.76972e-17
2.19591e-26
-0.000147654
5.66426e-32
2.58433e-28
-4.13529e-29
2.1387e-22
2.38074e-09
-1.61935e-09
3.78614e-23
-4.74353e-26
0.000360994
8.51084e-23
-2.23089e-23
1.30322e-21
-1.15052e-21
-6.85917e-21
2.77304e-23
-2.19075e-32
1.6155e-31
-2.643e-19
6.0618e-22
1.41769e-21
-1.78065e-13
-1.47667e-14
-3.32234e-26
3.67491e-29
4.45206e-15
-2.19591e-26
9.55077e-29
-7.67391e-26
-1.16429e-31
2.68338e-31
7.29005e-24
2.14394e-23
3.22013e-32
-1.04937e-31
9.40244e-31
-1.27513e-24
-2.31296e-30
8.89378e-31
-3.18932e-17
1.30076e-17
2.86669e-21
-2.51758e-21
-6.51732e-22
6.69277e-23
3.27204e-22
2.57589e-23
7.59829e-23
0
-2.20535e-32
7.95945e-35
-4.70014e-18
-5.8713e-25
0.00198445
-0.00199319
-4.82837e-08
2.29454e-24
-2.29284e-26
2.63432e-23
5.2114e-24
6.35414e-22
6.11059e-22
0.000844853
3.54426e-26
1.49432e-27
5.50254e-25
2.91011e-24
-6.49174e-32
6.18487e-33
1.34608e-24
8.72082e-12
3.18683e-31
-2.81975e-31
-2.76319e-23
1.30779e-25
1.93936e-15
1.87468e-32
2.34904e-27
-2.34369e-28
-8.78798e-30
2.55445e-21
-1.69867e-22
-7.22094e-22
9.4126e-25
7.39655e-10
-1.29086e-09
4.78738e-34
-1.19353e-33
5.22068e-30
0.000282339
-3.89275e-10
-3.65767e-29
7.8692e-32
4.211e-29
-2.59292e-30
-2.57084e-30
9.88355e-23
-3.67078e-27
1.20708e-24
-1.20994e-18
1.67652e-23
6.10104e-32
-6.06487e-32
9.92178e-34
1.72349e-22
-9.24977e-24
-0.000134402
-2.51067e-18
2.27088e-28
0.000548093
-0.00145513
-8.17971e-27
-0.000859087
0.000732586
3.96163e-23
1.93244e-33
6.33607e-09
1.23685e-30
-3.1106e-29
3.4499e-23
1.11639e-23
3.65934e-32
-2.84637e-08
4.31717e-33
4.63762e-33
9.44658e-24
-5.94758e-25
-1.38928e-17
1.09405e-18
0.00115088
-0.000516441
1.20848e-33
-7.18368e-38
6.41108e-25
-3.66474e-31
2.7677e-27
4.79328e-26
-3.16725e-27
-3.38764e-33
2.72849e-33
-7.13064e-33
-6.97215e-31
4.04606e-31
-1.28114e-24
3.56053e-27
-8.90456e-10
2.40775e-24
-1.01996e-24
1.60378e-28
-5.74066e-24
9.6158e-25
6.81181e-25
-9.54736e-29
3.72655e-31
-7.88783e-26
2.09808e-27
-2.52e-24
1.00356e-25
-3.57818e-36
5.62332e-25
-9.58332e-05
1.7705e-28
8.3057e-19
-6.92569e-19
-3.07162e-34
2.94033e-31
-3.59283e-32
-5.79327e-30
7.13314e-24
1.29998e-25
1.38438e-12
-9.82982e-13
0
3.13138e-34
6.14958e-25
-1.46636e-26
-0.000101147
0.000791036
-0.000689889
2.35321e-24
-2.37646e-29
-2.23708e-28
-1.81937e-18
2.82105e-26
1.02948e-27
1.00652e-26
3.84123e-35
2.57766e-24
9.5968e-25
-5.34779e-27
1.80609e-28
2.67467e-30
-2.35111e-31
0
-3.95303e-37
8.83798e-36
5.27625e-26
-3.4891e-25
2.45581e-28
5.91501e-34
1.9639e-15
-1.25742e-17
-1.89118e-14
1.81609e-14
1.50083e-25
6.7374e-15
1.83196e-26
-8.37352e-28
6.65879e-31
9.47381e-28
3.15934e-33
-3.68903e-27
1.33201e-29
-1.86529e-33
7.76774e-34
-8.81193e-30
7.15447e-33
1.37511e-25
6.84522e-25
-7.50775e-25
1.95588e-35
-7.88476e-35
-1.04578e-35
-3.40046e-30
-8.80966e-36
6.45182e-35
0.00024141
0.0004148
-1.28628e-18
-6.64208e-20
1.63304e-24
-1.86779e-24
-4.25991e-08
-2.15097e-08
-2.63763e-30
6.70172e-32
3.64459e-32
-2.18381e-33
2.83072e-36
1.80753e-26
2.32226e-27
-1.16199e-25
6.29063e-27
-7.95075e-31
9.39151e-18
-9.74123e-19
1.88604e-24
-1.25749e-25
-7.30015e-10
8.24663e-27
-1.53524e-35
-2.38364e-05
2.3667e-32
-3.20597e-33
2.58631e-27
3.2565e-28
1.80293e-34
-8.62447e-35
2.01445e-07
1.03775e-35
3.26011e-29
-7.17296e-33
1.53484e-35
1.26916e-25
-6.42374e-27
2.60431e-26
6.89143e-26
2.08926e-34
-2.31264e-34
1.22158e-28
0.000842857
-0.000193859
-0.000814052
0.000666398
3.71879e-28
-1.73063e-09
2.35468e-35
-1.75183e-19
6.5001e-27
-3.90701e-28
6.29527e-27
-6.01032e-13
9.44323e-30
4.16172e-31
6.71603e-37
2.62967e-37
4.27577e-39
2.15529e-30
9.01982e-27
-3.86973e-30
3.05357e-31
-1.6306e-33
3.43368e-39
1.61686e-26
-3.42585e-34
1.73999e-35
-3.188e-08
3.22261e-27
-1.1532e-33
0.000523477
0.00031938
3.96423e-28
-2.2662e-29
-6.4958e-33
-2.73497e-35
1.80984e-36
2.43614e-31
-2.29238e-32
7.83322e-30
1.81874e-28
-9.34749e-30
3.17108e-34
-2.48044e-30
9.24957e-28
1.92972e-27
8.30599e-28
3.71959e-31
-8.06485e-39
-7.35385e-38
1.30088e-39
1.20262e-33
0.000900613
8.73726e-18
4.86387e-18
-6.98747e-18
2.22998e-33
-1.64824e-34
4.98644e-29
2.37995e-34
-2.31794e-35
-4.59667e-05
0.000542957
0.000147276
-9.97673e-37
1.08967e-28
2.49197e-36
-3.13583e-34
3.95838e-36
-1.5026e-33
2.83136e-30
-4.96751e-09
0.000603956
3.12605e-29
-1.05909e-35
1.80284e-37
1.76354e-37
-7.25207e-11
2.23266e-36
4.18325e-37
-1.19017e-27
7.55586e-29
6.63981e-19
-9.44883e-20
-2.06809e-28
6.42917e-30
3.04343e-29
1.48064e-36
1.9218e-31
-3.65098e-36
4.71167e-38
-3.348e-30
1.10364e-32
2.31822e-29
-8.52954e-32
2.66617e-15
-4.48079e-07
5.02895e-28
-6.1868e-41
2.71334e-37
-1.17731e-28
1.20747e-29
2.7666e-30
-4.63385e-32
-1.29032e-39
2.03899e-28
-2.88087e-28
-8.14663e-05
-8.51355e-35
3.14635e-18
-1.5855e-35
1.63091e-37
1.11367e-28
6.4703e-29
5.9756e-19
-7.48267e-31
2.55129e-32
-1.24145e-36
3.97847e-37
-8.66131e-36
1.55634e-32
5.38406e-28
-8.00034e-28
7.95777e-33
2.34419e-35
-1.29979e-36
5.54929e-28
2.12587e-35
-1.3618e-40
2.76641e-39
8.04903e-28
-5.31389e-29
6.22158e-30
1.1681e-08
-9.17499e-09
1.68708e-34
-1.31825e-35
5.34361e-29
-2.4319e-30
-0.0011963
0.000750792
1.25532e-38
-1.28076e-38
2.54126e-40
-1.19988e-30
3.56966e-32
5.65169e-17
-5.5362e-17
2.44658e-35
5.13008e-39
-3.31478e-33
4.86158e-35
2.44811e-30
-1.21747e-31
1.87232e-40
-1.17914e-40
7.6741e-09
-1.35891e-09
-0.000894457
0.000817538
3.62513e-31
9.72529e-32
1.19506e-37
-5.81069e-39
1.10218e-38
-6.52082e-33
2.84227e-35
1.25778e-30
1.22645e-31
-6.45051e-33
1.0147e-36
-1.63467e-33
-2.29114e-09
1.3798e-09
-8.40966e-30
2.38369e-31
-1.13032e-19
1.20984e-19
1.86705e-19
-1.00343e-36
2.21116e-39
9.59098e-32
5.44179e-33
8.62144e-39
-4.19807e-38
3.69946e-31
-6.11455e-38
8.57045e-38
-4.60876e-38
-1.13301e-22
8.52913e-35
1.91866e-33
1.19921e-33
-6.79839e-42
3.5572e-30
-3.88299e-30
3.48372e-30
6.11452e-34
-1.03889e-42
-2.76094e-39
1.22998e-38
3.41003e-35
7.73515e-30
-3.62775e-33
1.63382e-07
1.31958e-36
-8.37945e-38
1.86405e-31
-1.75626e-08
2.56995e-17
9.04134e-43
9.85825e-38
-1.338e-37
-1.4793e-37
6.5901e-39
1.07712e-32
5.72249e-32
3.73199e-31
7.53529e-31
1.38539e-19
-1.61246e-19
2.63371e-33
-6.32161e-37
4.55998e-34
5.16552e-43
3.34225e-35
-1.3005e-39
2.20438e-41
6.50338e-33
-2.88587e-34
1.63069e-08
-7.17758e-11
4.03142e-32
2.98818e-32
2.05591e-35
-0.000817916
0.000722106
4.35148e-05
-0.000105219
-0.000268277
5.40509e-40
7.23106e-20
5.3216e-42
-2.92083e-40
1.41668e-41
-1.89913e-41
-8.29344e-39
2.04431e-40
5.89019e-38
1.36468e-37
-1.09237e-38
0.000300265
0.000303691
1.34446e-35
-8.39142e-37
-1.7584e-34
3.52634e-11
-7.78885e-16
6.25225e-34
-1.78457e-05
7.67609e-07
1.17323e-05
-8.65192e-36
2.04164e-37
7.11542e-39
6.34755e-17
-5.53905e-17
1.06311e-36
-2.22845e-43
1.76446e-33
7.67234e-35
-1.35015e-40
-1.38969e-39
9.63238e-41
8.5092e-38
-5.31796e-39
-0.000764605
0.000570746
-3.7385e-08
9.3561e-40
8.11104e-40
-1.74029e-43
-4.35572e-39
2.04258e-40
-2.43488e-37
8.54131e-37
-9.42855e-38
3.39498e-32
-6.30216e-32
-1.18147e-35
-2.08197e-35
2.92524e-34
1.87722e-36
-6.08666e-33
2.43478e-34
-8.8671e-32
2.46481e-33
8.95365e-16
-1.00362e-15
9.74216e-32
-1.87421e-31
5.27402e-34
-9.82069e-05
0.000698271
-0.000722107
-2.88296e-44
4.08077e-44
0.000842748
-0.000755129
1.47067e-32
1.87972e-31
-1.1899e-32
-1.05645e-42
2.2781e-44
8.7703e-41
-5.89705e-39
4.53815e-41
3.41443e-41
-2.3016e-32
1.66378e-33
1.10192e-38
-5.58657e-40
1.193e-32
-4.61017e-34
3.00213e-35
2.02386e-33
0.000415216
-0.000516363
1.37657e-17
4.15548e-44
-8.08534e-44
4.62424e-34
-1.82652e-35
6.27558e-41
-2.64867e-44
-5.89064e-38
6.4591e-40
3.22443e-41
0.00105791
0.000784366
-3.4014e-44
4.22777e-43
6.84893e-38
3.41003e-35
1.45831e-42
0.000548093
1.73616e-34
-8.74805e-36
1.28301e-34
1.81263e-35
-6.92662e-37
0.000715065
-5.19664e-43
-2.10563e-42
-7.35437e-47
8.29605e-16
-7.49915e-16
1.03563e-33
2.90478e-36
1.95375e-36
1.15775e-37
-7.25005e-42
1.93978e-43
1.55003e-46
-1.24246e-43
3.67245e-45
9.7156e-47
-1.82804e-34
5.18567e-36
3.66277e-42
1.05524e-34
2.26926e-43
2.83878e-42
-1.58669e-41
5.64861e-40
-3.09401e-41
6.31648e-37
-5.27631e-41
1.22255e-40
-2.42503e-41
1.28359e-42
6.94794e-37
-2.6186e-38
5.39055e-39
-2.63817e-40
3.24367e-34
0.00066625
3.54466e-40
2.54516e-35
2.4055e-44
1.15426e-36
3.27438e-41
-5.38163e-41
0.000616804
2.57978e-30
-2.80589e-30
0.000749719
-0.000226242
0.00176475
-0.000922003
1.60611e-42
2.88363e-41
-1.74635e-41
4.18098e-38
0.000476631
1.4464e-38
-1.50748e-48
1.48395e-48
2.35272e-50
3.36703e-43
-1.35286e-40
1.21294e-39
3.87512e-36
9.91591e-44
-2.02289e-34
3.26146e-36
1.45799e-19
-1.37374e-39
1.87115e-41
-1.74357e-43
2.95563e-45
4.58573e-17
-3.81818e-17
-3.92194e-34
7.44468e-35
-9.50101e-44
5.7727e-36
1.37163e-40
-2.44119e-37
-6.40244e-43
4.81229e-19
-1.59024e-18
5.4528e-41
-3.64637e-42
1.02717e-47
-2.20001e-47
2.06537e-35
-1.23245e-39
2.40832e-43
4.60411e-16
-3.75789e-16
9.10954e-36
-5.14615e-37
-4.22232e-43
8.46026e-43
3.12959e-41
-1.5487e-42
6.53639e-36
6.44381e-46
-4.19616e-45
3.00796e-41
1.97747e-43
0.00100984
-0.000594622
1.63481e-43
-9.41599e-50
-7.87509e-48
6.43853e-48
6.15016e-48
-9.55818e-38
6.8021e-40
2.62695e-38
-2.9528e-40
6.19964e-39
7.90452e-38
5.3397e-37
0.000254709
-1.8583e-41
2.89121e-43
6.74927e-45
-4.52099e-45
3.94248e-18
1.93173e-44
2.6582e-37
6.61066e-39
-5.07803e-48
3.204e-48
8.74071e-09
2.20052e-13
5.36327e-39
1.18701e-42
-5.27194e-43
-2.85979e-08
-7.35856e-47
1.6867e-48
3.15318e-47
3.67115e-48
8.25547e-45
1.66178e-19
-2.65088e-22
2.7294e-50
7.33627e-45
-1.44763e-44
4.07764e-47
8.81284e-43
2.66963e-40
-9.45422e-42
5.7374e-50
4.42692e-43
-3.4404e-46
3.66982e-42
-1.69181e-43
-1.13469e-45
-2.55083e-43
6.10675e-44
-4.18112e-39
2.31265e-43
1.50751e-29
5.10042e-43
2.67242e-43
-5.07633e-43
6.58657e-45
-1.6732e-08
-0.000157502
-2.73406e-40
-7.50069e-49
8.97599e-50
1.56384e-42
-5.89984e-44
2.90353e-47
0.000813527
8.22876e-46
3.01693e-40
2.89987e-41
1.10469e-50
-2.27075e-43
3.19432e-45
1.06444e-48
-7.29854e-49
-2.72981e-48
8.88646e-49
-1.29648e-16
2.83712e-16
2.28089e-05
5.26671e-41
-1.43603e-45
0.000331672
-0.000848034
2.55556e-51
3.44734e-44
-2.24164e-36
2.86029e-38
-9.42138e-44
2.48632e-45
5.2851e-37
9.06352e-40
1.45907e-44
-8.35599e-46
-1.0078e-48
3.25299e-46
9.54593e-42
-6.19336e-43
-0.000722107
-1.40006e-45
3.31538e-51
0.000821142
-0.00048947
1.89353e-40
-1.68689e-49
1.52809e-37
1.17198e-37
-3.81235e-36
-1.84919e-48
2.34037e-50
2.16313e-35
-2.11806e-35
1.70506e-43
-8.13065e-45
6.60603e-40
-2.89026e-43
-0.000409488
-0.000702074
0.000475832
2.28724e-34
-2.78478e-36
-2.68728e-44
3.20857e-46
0.000922003
-0.000667294
2.56363e-48
-1.02012e-37
2.82734e-38
-0.000616804
0.000518598
2.38352e-35
-6.11526e-38
9.99452e-49
-2.35987e-48
1.09424e-36
-1.78784e-39
1.12896e-29
0.000740389
-0.000681748
-5.94158e-05
4.00033e-38
-3.83081e-41
8.64061e-44
-3.88826e-05
-0.0011569
1.81035e-51
3.94303e-51
2.30191e-52
1.16683e-39
-6.38213e-43
-3.20273e-39
4.11819e-41
-6.39793e-43
5.4563e-46
3.32467e-47
-1.10813e-40
-2.15362e-51
2.17015e-51
1.20448e-39
-9.41445e-52
4.25513e-52
8.19455e-45
-3.22396e-46
0
-3.48195e-09
0
5.95037e-44
-1.54324e-45
-1.43649e-38
3.30132e-40
1.09658e-51
-1.79761e-51
-0.000131328
8.39071e-46
-3.42799e-47
-1.19453e-42
8.44255e-43
1.55358e-45
3.24101e-52
0.000104642
0.000226521
2.90278e-41
-8.07925e-45
-2.48565e-47
-7.4492e-44
-3.45641e-46
9.60195e-48
-6.76877e-43
1.92876e-41
1.11562e-49
-3.59129e-51
2.36815e-48
-1.17804e-49
1.43612e-48
-8.36669e-44
-8.48668e-49
1.00816e-50
-2.78875e-51
6.10867e-50
5.74552e-50
2.47306e-51
-3.35694e-54
1.73214e-17
-8.95008e-18
2.80925e-52
-3.85866e-52
1.01718e-52
-1.34931e-52
3.24591e-46
-9.52183e-48
-2.74785e-40
3.29506e-43
-6.23796e-43
2.46022e-45
-7.60117e-40
1.48187e-41
-2.56783e-43
8.05388e-46
3.44511e-47
-1.42695e-48
-1.55141e-48
-7.36583e-17
6.50352e-54
2.97493e-43
-1.99206e-43
1.4123e-45
-5.73986e-52
7.01252e-43
-8.98394e-47
2.51443e-54
-1.12181e-40
3.17936e-43
1.73878e-41
-3.45569e-46
6.38938e-48
1.55422e-45
-2.75694e-47
5.16672e-44
7.03864e-54
4.5569e-50
-2.00323e-44
-8.82297e-18
-2.51491e-42
-1.2513e-45
1.30019e-47
1.84591e-49
4.53426e-55
0.000360787
-0.000770275
2.83454e-48
0.0006927
-0.000331912
-2.87032e-48
-2.33125e-52
4.06818e-51
1.01038e-52
1.76112e-52
-2.86601e-53
-1.15006e-38
5.95716e-40
0.000667294
-0.000440773
2.77395e-47
-9.8157e-49
1.18033e-49
-4.13618e-51
0.000203229
1.59734e-43
-5.75053e-48
1.68758e-07
-1.61412e-07
9.57884e-48
-1.83304e-49
5.41558e-46
-3.23034e-51
-0.000293645
1.0376e-42
-2.03456e-43
5.10731e-43
-1.68615e-49
3.84762e-51
1.43393e-48
-4.53183e-50
-1.43433e-45
8.39852e-49
1.84237e-49
-2.36964e-51
-2.00569e-44
9.25256e-47
7.14462e-54
2.39044e-51
4.26265e-41
-1.83688e-50
-7.9239e-26
7.92506e-26
3.395e-44
1.71579e-44
1.04224e-51
-3.35168e-46
-9.66989e-26
1.13765e-25
-2.54563e-42
1.17763e-44
-0.000638957
0.000345312
-1.38122e-52
1.57721e-54
-0.000518598
0.000387269
4.55128e-50
-1.03701e-51
1.49027e-53
-8.43079e-52
9.6457e-54
1.48838e-52
2.69977e-52
-3.48073e-55
2.38024e-51
-1.96498e-53
4.22507e-30
-4.22507e-30
-3.82615e-51
2.02791e-52
-6.65421e-44
1.17682e-12
1.4009e-55
-1.99781e-55
-5.31085e-42
4.60357e-42
-9.85853e-49
2.68307e-51
-5.87263e-57
0.00067897
-0.000375279
0.000619653
-1.35025e-41
9.70195e-44
4.14603e-51
-1.49524e-52
1.04096e-51
-1.48292e-53
1.16352e-54
-2.19976e-55
-1.05918e-50
0.000440773
-0.000237544
-6.44038e-54
5.85175e-54
-3.28242e-46
1.16952e-48
-1.39424e-55
1.48782e-53
-3.42501e-55
3.19641e-54
-1.69823e-52
1.7062e-53
2.08023e-50
-2.17292e-52
-0.000163125
-7.11613e-56
7.05683e-57
3.78507e-54
1.90129e-26
1.97222e-53
-2.42786e-55