/*--------------------------------*- C++ -*----------------------------------*\
  =========                 |
  \\      /  F ield         | OpenFOAM: The Open Source CFD Toolbox
   \\    /   O peration     | Website:  https://openfoam.org
    \\  /    A nd           | Version:  8
     \\/     M anipulation  |
\*---------------------------------------------------------------------------*/
FoamFile
{
    version     2.0;
    format      ascii;
    class       volScalarField;
    location    "0.25";
    object      alpha.water;
}
// * * * * * * * * * * * * * * * * * * * * * * * * * * * * * * * * * * * * * //

dimensions      [0 0 0 0 0 0 0];

internalField   nonuniform List<scalar> 
1924
(
0.000270919
0.00026469
3.51952e-06
2.45027e-06
0.000424302
4.61181e-06
7.03382e-05
0.00028332
0.000230874
0.000110554
0.00191047
0.000474166
0.0826868
0.00290783
1.37281e-09
9.64824e-14
0.00133416
0.00130616
0.0938982
0.00139908
0.965008
0.000284312
3.36773e-09
5.19625e-05
3.0726e-05
2.3695e-06
1.62943e-05
0.000178472
0.000375693
0.883641
9.82415e-07
9.32159e-05
0.000270919
0.000636337
0.000370625
6.30999e-09
0.000553602
0.000393991
0.992896
2.11682e-05
0.000157334
0.592421
1.5972e-05
3.72971e-08
0.159837
0.134537
0.261329
0.000101461
0.99999
0.999997
3.33923e-14
0.506102
5.90957e-05
9.18261e-16
0.0599204
0.000371788
0.452671
0.0513203
0.000153522
5.37337e-12
3.61851e-11
2.5682e-12
-2.22635e-11
0.999992
8.83881e-16
0.00011354
3.96076e-14
6.36786e-09
0.0520587
3.69621e-13
0.000210482
3.74078e-16
0.999876
0.0552984
-3.44513e-07
0.000499904
8.7465e-05
-6.43151e-07
0.000106916
8.37162e-13
1.40061e-12
2.1372e-06
0.999781
0.953572
0.000270919
1.06508e-07
0.000138188
8.77661e-08
1
0.212233
1.14146e-12
6.1411e-08
0.0712884
0.0263698
0.832923
1.21689e-15
3.34152e-05
7.82185e-12
7.10021e-11
4.63074e-05
4.92335e-06
0.952671
5.18937e-10
2.09486e-08
0.0013582
1.62599e-09
0.00563979
0.000416274
1.36007e-12
0.0688822
2.53315e-07
0.0650599
0.000154565
0.999
0.000199474
0.952671
5.56208e-06
3.96166e-18
6.69914e-11
0.000110996
0.000270919
1
0.968445
0.692243
4.14505e-16
0.000897969
0.00133143
1.37158e-07
0.067117
1
2.59096e-07
-2.1697e-05
2.53255e-05
0.962432
0.950333
0.0408922
1.71883e-05
0.0192901
5.65405e-06
0.000131882
0.000122031
2.87798e-14
0.999298
0.315503
6.83387e-06
1
1.96875e-05
0.000130217
6.19808e-14
3.77475e-12
0.999956
1
0.000597529
0.000196388
1.09527e-05
2.91298e-05
1
1.25284e-05
2.76846e-07
0.999948
0.841249
2.69849e-05
1.32258e-05
1
1
0.0150398
0.000794774
1
9.01549e-06
0.0666119
0.000502157
1.41267e-05
8.34796e-10
1.10454e-09
4.18848e-05
0.150252
0.999473
8.4515e-06
6.20525e-09
3.60976e-05
0.0725742
1.44196e-16
-1.80097e-07
0.000638664
1
0.0828005
0.000150283
0.0273577
2.84405e-07
0.0935591
1.96875e-05
1.43263e-05
2.85607e-07
1.40984e-05
0.00155548
1
8.13076e-05
0.244191
0.010767
0.695588
0.256649
0.00017584
0.05523
0.00173439
0.000444697
0.293042
0.000522731
0.420956
0.00272602
2.69849e-05
1
0.0661372
4.42302e-06
8.27601e-05
0.00138455
1.39773e-08
6.01631e-16
1.96875e-05
0.000550931
1.49152e-07
2.03855e-05
0.852513
0.0413519
4.98956e-07
0.0028493
0.000294541
1.96498e-07
8.69171e-08
0.00011393
0.67459
0.154045
2.24657e-12
0.0729681
2.05423e-05
0.000250875
0.999978
4.54234e-07
0.000693024
0.0501994
1
2.26248e-20
0.473676
4.56411e-08
0.706202
0.817549
0.500758
0.00289917
2.45027e-06
-3.09562e-07
9.28272e-10
0.395563
1
7.82601e-06
0.0660296
9.95397e-07
1.9806e-07
1.57145e-07
0.460944
2.91291e-05
0.00283043
4.03086e-05
0.0223358
8.42595e-11
0
5.55045e-06
2.20286e-09
0.00249153
8.09017e-10
0.000733482
0.999494
0.273272
0.999997
0.140569
0.440796
8.38001e-14
1.03516e-12
0.00291186
0.000280825
0.0501854
0.655478
0.587726
1
5.60576e-12
5.08668e-07
0.334109
0.014985
8.6582e-09
1
0.000385073
0.463743
0.0135632
0.671309
1.23749e-05
1.08165e-09
0.909655
1
1.37759e-08
0.761914
2.56704e-10
2.12306e-08
1
0.0499529
1.25963e-10
6.66884e-19
0.00289917
0.049604
0.000914924
1.05339e-09
0.45064
0.360077
0.928258
9.39231e-14
1.26466e-07
1.5612e-06
1.61998e-06
0.00148058
5.0466e-05
0.00230569
0.000505654
6.69184e-05
9.10388e-09
0.0338628
0.0351716
1
0.000178814
4.28292e-07
0.414767
0.297553
2.28735e-06
2.25353e-07
0.624983
1.04223e-16
7.09369e-08
0.00285257
1.94088e-08
3.1092e-06
4.02565e-13
0.000384416
1.14361e-07
0.027718
5.57689e-07
0.999944
1.20609e-06
0.756623
2.46351e-09
-7.06182e-18
0.311956
2.6012e-17
2.39111e-19
0.000921379
1.15381e-06
0.996926
1
-9.56064e-12
0.939688
7.16508e-10
1
0.00224845
0.260937
4.40041e-17
6.24903e-08
1.00194e-11
1.85627e-11
9.9602e-15
5.22833e-07
0.0111878
3.75089e-07
0.000197048
5.19677e-08
7.69287e-06
2.05075e-11
1.66818e-05
0.0224456
5.86493e-20
4.44345e-09
8.68532e-06
7.58762e-11
1.85949e-10
2.74758e-07
5.58791e-18
4.59152e-20
8.69625e-10
0.441607
1.57215e-05
0.0797742
1.84687e-11
3.11055e-07
3.11007e-15
9.76277e-09
0.00505729
0.999992
1.56524e-08
0.280612
3.29956e-18
1.87038e-06
2.69849e-05
9.45005e-09
1.12367e-07
1.21609e-08
3.40979e-19
1
2.43408e-10
0.343216
0.000337427
1
7.78712e-14
3.23048e-11
1.32785e-19
0.0416868
1.87866e-07
1.28944e-08
5.08933e-10
0.00223917
0.00282715
1.48124e-08
1.86946e-19
2.37947e-15
1.72677e-14
1.98136e-11
2.53315e-07
1.26752e-13
2.76031e-05
1.44867e-11
0.75662
1.93199e-08
7.55792e-13
2.30348e-06
0.988928
1.12593e-08
1.53838e-11
2.1853e-15
0
1.8868e-12
2.96425e-11
-9.84161e-08
9.49932e-11
2.48585e-13
1.9234e-05
6.64022e-05
1.12619e-07
0.176466
1.60992e-09
1.37144e-05
1
4.52705e-19
0.99765
5.06946e-10
2.49999e-10
0.0547317
1.59556e-16
1.58422e-12
3.04695e-09
4.37512e-06
4.8613e-09
4.6132e-10
0.00064711
8.41136e-13
1.64587e-13
1.24919e-11
3.23561e-21
1.97829e-08
1.7025e-09
0.00175122
1.68038e-12
0.0865476
6.97135e-18
9.30556e-21
3.51993e-09
1.95361e-05
0.0766633
1.07446e-08
7.61429e-11
0.0193483
2.10203e-13
1.77942e-06
1.49859e-12
0.999987
0.00106064
2.72463e-20
-2.05409e-20
7.53786e-11
1.25765e-08
4.79678e-16
3.02177e-22
6.27313e-10
2.77977e-09
6.06338e-12
4.97251e-22
2.7105e-13
6.8828e-09
0.000227042
3.48708e-13
4.84113e-12
2.53315e-07
2.6969e-15
1.44892e-12
7.90586e-22
1.6996e-16
6.71299e-11
1
1.19228e-15
2.63252e-13
0.117465
8.14282e-09
0.000570727
1.52223e-22
1.52855e-15
3.9627e-11
6.22701e-11
-2.56007e-16
1.59579e-10
6.85249e-14
1.33532e-17
1.42234e-05
3.97967e-19
1.60895e-20
1.03816e-10
0.000146998
2.37897e-07
5.15311e-23
1.28594e-12
2.88692e-15
-1.15266e-13
2.48029e-15
1.85308e-06
1.08132e-05
2.21167e-06
3.11406e-09
5.27655e-10
1.15665e-10
3.78392e-14
0.000121249
1.60894e-11
1.6467e-11
1.15051e-05
1.88351e-23
5.15084e-10
2.39184e-05
0.000318979
3.56254e-11
8.22618e-12
1
3.72832e-11
2.38368e-10
9.6692e-15
7.07314e-14
0.654691
0.999999
8.44169e-22
9.18599e-10
3.87367e-13
2.67112e-17
2.40576e-22
1.83313e-12
3.04343e-12
1.61611e-11
5.43793e-09
4.03927e-13
1
0.999838
1.03395e-10
1.07576e-13
0.000377881
2.91633e-18
0.038845
1.27629e-06
-1.37516e-13
2.68719e-07
0.00706705
2.55498e-12
-1.11817e-29
5.91042e-16
8.20271e-13
4.33155e-19
2.95456e-10
6.68733e-22
2.18112e-13
6.84052e-05
-6.5069e-17
6.19673e-11
1.26745e-12
1.79088e-23
5.15659e-07
2.17225e-20
7.39302e-16
5.14587e-10
9.04662e-19
-1.41209e-20
-3.71142e-14
0.999996
2.44601e-11
4.68462e-13
0.999494
1.4415e-14
2.18985e-12
9.54341e-18
2.56213e-23
5.29711e-06
4.88914e-25
1.4497e-15
4.91998e-20
5.7455e-18
5.11334e-11
1
2.80551e-12
-9.58212e-11
1.28939e-06
-1.12923e-14
1.68485e-06
2.90324e-25
5.70852e-12
1.68239e-14
1.61959e-11
3.44215e-09
2.98941e-13
4.4297e-23
9.24727e-07
3.1561e-07
9.72365e-18
1
0
-9.25448e-14
3.70629e-07
2.48625e-12
9.22633e-11
2.55875e-06
1.49085e-13
1.26026e-24
9.32517e-08
1.66873e-11
3.29098e-24
2.06352e-14
4.96121e-06
9.93207e-18
3.53573e-13
2.44473e-21
1.07895e-13
1
2.03828e-16
-4.70744e-15
7.69503e-20
1.11212e-19
8.69007e-14
9.42213e-14
2.86599e-23
2.64008e-17
2.4169e-13
2.97911e-29
1.00549e-16
3.48387e-05
2.36249e-15
1.63256e-21
2.63306e-05
2.5129e-08
7.93814e-14
7.34816e-22
2.41407e-17
8.76297e-11
7.99366e-13
3.00939e-11
9.21882e-11
3.19471e-15
8.33473e-07
-3.18994e-14
3.28451e-23
0.999999
2.2095e-13
5.92894e-25
1.44675e-14
5.25335e-15
1.92741e-14
-8.10647e-14
0.000343966
1.23159e-10
2.2107e-16
-6.18658e-14
1.12687e-09
2.82576e-24
8.90727e-18
1.80336e-12
4.27998e-21
1.33765e-20
1.17726e-24
2.71666e-26
6.64224e-14
9.51865e-12
9.59933e-25
1
-1.253e-18
6.15172e-13
0.999974
5.43644e-12
2.87114e-07
2.50396e-15
9.64574e-17
1.90484e-19
6.10466e-12
2.47178e-10
4.40801e-16
6.94775e-15
-5.79295e-14
1.69656e-22
3.09743e-16
1.29159e-05
1.59791e-20
2.96375e-17
3.02979e-21
2.24406e-15
7.40929e-20
1.52058e-14
4.36269e-16
1.24428e-15
1.08872e-22
1
2.19357e-14
7.55492e-09
1.37086e-22
8.70959e-19
4.86805e-19
0.839319
2.90168e-10
2.14578e-26
-8.06368e-14
6.53386e-14
2.28604e-26
0.000359146
8.68532e-06
1.3576e-23
2.36325e-07
-4.46886e-15
2.13878e-24
7.25935e-16
1
7.53338e-17
5.70157e-28
4.61679e-15
3.03763e-26
2.42942e-18
5.33369e-26
5.04123e-21
4.27964e-20
9.47194e-25
-6.60561e-14
1.46569e-19
1.54272e-05
1
2.14973e-16
3.25636e-13
5.56785e-16
-7.04472e-15
1.39702e-15
1.48573e-26
6.46286e-09
1
1
1.03258e-08
0.9962
5.64457e-23
1
1.39268e-27
0.00643406
3.66106e-26
8.45329e-31
-2.61617e-14
7.95157e-17
3.56434e-18
5.14024e-17
1.65254e-17
8.53723e-15
7.18542e-18
1.19055e-26
4.61988e-17
1
2.208e-24
1.86923e-06
7.12292e-23
7.25937e-18
4.13667e-16
4.24496e-14
1.55803e-23
2.67736e-27
7.45767e-10
1.4373e-12
0.000196592
3.94886e-05
6.81774e-05
1.15113e-26
6.19665e-19
6.47553e-21
1
1.72143e-20
1.38007e-20
7.5393e-22
1.21405e-25
4.46543e-18
-3.25663e-14
1.85921e-23
8.53984e-11
3.16816e-20
1.86153e-18
0.000646043
3.46931e-07
8.48105e-17
0.999988
-1.95147e-14
1.37961e-23
1
5.69305e-28
1.33774e-25
5.35413e-19
6.76637e-07
3.65613e-20
1
9.50313e-20
1.21807e-17
1.47824e-20
6.35891e-28
5.00264e-19
1.84279e-17
1.59536e-10
6.08383e-26
2.89645e-10
5.21858e-26
3.08001e-19
9.89617e-28
7.01048e-21
5.63832e-20
4.40505e-29
2.1353e-27
6.26088e-23
1.50536e-27
-1.85544e-14
1.49544e-17
7.42291e-19
1.24236e-18
7.43501e-19
7.5457e-10
1.11356e-32
-2.80881e-15
0.982621
1.51695e-06
2.39055e-21
5.90453e-20
7.07538e-18
1
3.88109e-22
6.47605e-21
9.54793e-21
2.90883e-29
6.60068e-20
8.85051e-12
9.04786e-28
4.48616e-23
4.50145e-11
2.20615e-28
6.0531e-25
2.01478e-24
1.63109e-19
7.54681e-22
2.43256e-07
1.55419e-30
-2.70178e-30
1.40075e-26
6.58283e-06
-6.69673e-28
1.13695e-27
-3.32743e-20
1.24747e-18
1.77428e-25
8.17559e-22
-3.56946e-15
3.33253e-19
-6.7516e-31
6.2939e-13
6.93406e-21
0.740239
-1.75739e-14
4.24539e-30
1
3.31842e-22
1
4.51671e-19
1.56903e-29
6.47245e-06
3.58056e-28
2.57521e-19
1.05435e-28
6.37794e-06
2.99816e-29
2.59472e-29
2.41039e-21
-8.33557e-15
0.785604
-4.98231e-32
3.17882e-23
2.96171e-24
2.90412e-25
9.46556e-30
2.81318e-31
8.05259e-28
2.40095e-24
3.71582e-05
6.08186e-21
6.62746e-25
1.24136e-20
1.12534e-20
1.9643e-28
2.78381e-27
1.15081e-21
-1.25889e-33
9.30023e-21
0.999838
7.22153e-26
4.4797e-16
-4.68229e-23
9.76021e-29
1.35837e-27
9.41573e-20
4.09834e-22
3.88148e-10
5.48405e-07
3.19766e-29
4.24024e-22
1
1.22679e-21
-6.10778e-23
-8.89608e-15
8.59644e-11
4.27674e-11
7.88638e-23
3.35008e-23
4.31371e-31
1.61304e-20
4.80025e-24
3.37766e-28
3.33697e-07
4.0951e-34
9.32477e-22
2.80675e-24
1.60003e-30
6.79466e-15
-4.59939e-13
4.92497e-22
3.51691e-11
1.90674e-24
1.90457e-27
3.37522e-24
1.00214e-29
5.25303e-27
3.30183e-30
1.41902e-29
2.47891e-21
1
7.96092e-21
8.86656e-32
0.773525
-3.20229e-33
2.46065e-05
-1.75472e-25
3.04559e-31
1
-8.2665e-16
1.01398e-20
1.58719e-05
2.51892e-31
3.34112e-31
2.36525e-33
1.20952e-22
9.95608e-23
1.87405e-28
6.1408e-15
7.45948e-23
3.1366e-06
1.25944e-22
2.66625e-30
1
6.536e-31
5.13529e-24
7.32752e-31
3.24565e-05
1.38072e-31
5.22043e-25
1.79447e-32
3.96048e-25
1.07714e-21
6.36403e-31
5.95514e-25
1
1
2.54506e-23
2.5766e-05
7.0257e-32
-8.1569e-16
7.2829e-25
1.5208e-22
3.52085e-10
1.07002e-25
2.99597e-33
4.31467e-35
2.86454e-27
1.60855e-22
7.43177e-28
5.34921e-28
3.49406e-36
2.24237e-22
3.46409e-08
1.26507e-31
9.15471e-07
-1.20325e-25
1
9.96405e-26
4.00503e-31
1.02096e-32
6.34489e-29
8.76003e-27
3.10177e-27
1.07644e-30
3.05661e-26
2.99013e-24
2.38153e-23
-2.252e-36
7.91203e-38
6.25553e-31
0.999726
6.2396e-15
6.48623e-17
1.22856e-31
1.8831e-25
5.20215e-32
0.225705
0.999997
1
-5.47261e-32
1.31968e-26
1.56314e-32
0
2.1326e-32
1.2618e-26
1.47414e-06
1
7.49177e-25
-3.35473e-35
5.89469e-32
4.72915e-07
1.77182e-32
5.86264e-33
1.37252e-24
4.77522e-16
7.52092e-26
8.10469e-25
5.58668e-33
9.21698e-28
5.11753e-36
1.61741e-28
1.71143e-26
1.50362e-12
0.00134631
1.00786e-23
-1.57926e-34
8.79764e-34
2.63105e-25
4.27302e-27
-4.54832e-35
2.89698e-24
1
4.64646e-27
4.64424e-16
7.15382e-35
1.42076e-24
0
4.37177e-28
1.80988e-33
1.10705e-27
8.25953e-29
4.02208e-24
3.59301e-29
1.74093e-34
3.62036e-25
1.27362e-37
1.84163e-26
1.60802e-25
6.44315e-06
2.26501e-32
-4.96243e-28
0.993272
5.46768e-40
1.0683e-27
4.50444e-14
9.48803e-32
8.06213e-35
7.23481e-33
9.36644e-29
6.57975e-37
6.13882e-06
0.991152
5.30396e-27
4.83995e-34
5.46032e-37
1.50362e-12
3.48495e-35
7.71863e-33
3.78041e-26
1.25589e-29
2.40211e-33
6.13882e-06
5.46022e-27
2.99016e-16
2.55398e-36
8.88088e-29
4.71798e-35
9.60602e-27
-4.10579e-34
3.8296e-34
1.97652e-19
1.87962e-19
0.000828244
5.49967e-37
5.22767e-29
3.01065e-40
6.21472e-26
7.36011e-26
6.12607e-30
-4.96497e-38
6.4342e-35
1.49287e-33
2.45484e-29
1.96875e-05
2.42841e-35
7.91363e-28
9.80748e-06
4.83494e-14
7.46592e-39
3.2334e-34
7.368e-35
4.67669e-29
5.73558e-27
9.45524e-27
1.93315e-27
7.39178e-17
2.54189e-29
2.59574e-30
5.50252e-40
4.82285e-21
1.70918e-30
-6.9839e-39
1.53111e-30
1.52029e-05
1.02964e-27
1.39764e-31
0.999989
0.373765
2.36281e-36
8.06864e-17
3.12413e-35
2.49989e-38
9.14898e-40
4.38832e-39
9.51755e-35
1.93941e-35
1
1.61771e-33
6.26272e-31
3.91543e-24
2.58287e-08
2.30006e-29
0.0102258
6.36234e-34
3.28748e-35
4.49609e-14
8.06218e-33
-3.71731e-37
1.98676e-29
8.92713e-39
1.91488e-37
2.17564e-06
1.28114e-36
5.53028e-36
1
1.33825e-05
6.54301e-36
7.39563e-36
-1.54024e-39
1.45191e-36
1.00804e-31
9.60906e-36
5.63596e-28
-2.07506e-32
2.68196e-31
1.53236e-30
6.40293e-29
8.04487e-13
8.63552e-28
2.70671e-29
1
1
1.35283e-40
1
4.84703e-28
1.4295e-30
-3.08033e-42
3.4339e-37
2.06392e-38
1.6761e-37
4.16813e-29
6.82962e-38
-1.461e-31
5.6827e-29
1
9.30381e-14
8.62954e-41
1.87685e-33
1.21038e-42
3.03818e-37
1.22128e-36
0.354744
1
1.96855e-41
5.93547e-34
0
1
0.254413
6.05391e-32
4.8568e-30
4.95178e-34
1
-1.21889e-40
1.23449e-39
-5.53961e-45
3.2138e-17
1.19931e-12
5.02701e-30
1.01541e-31
-7.6093e-35
-2.58626e-45
1.87394e-42
5.95383e-42
9.08787e-43
1.59233e-31
1.24032e-38
4.63821e-30
1.27734e-40
1.68688e-38
9.91611e-40
1.27011e-33
1.47412e-36
1.37764e-38
6.1998e-35
2.65169e-37
8.30675e-30
1
1.8752e-36
8.66259e-32
4.05934e-40
4.72685e-33
1.1554e-37
1
2.63523e-27
1
1
8.95179e-39
1.40033e-37
2.1675e-34
9.82666e-25
1
7.71695e-34
-1.72322e-62
-1.48595e-41
-2.92539e-35
7.59271e-31
-3.05444e-40
9.82119e-32
7.60729e-16
1.29052e-37
-1.42085e-42
3.23344e-14
2.10714e-30
2.23399e-38
3.11553e-31
3.53761e-37
2.8555e-36
7.7131e-15
4.68495e-39
2.27014e-44
5.75954e-32
1.88683e-39
7.78418e-13
1.96286e-34
4.93866e-39
6.42722e-40
2.42282e-31
4.13555e-42
3.12178e-37
2.10214e-39
1
7.28539e-40
6.67834e-47
2.37152e-44
2.89102e-44
7.41798e-38
6.65824e-36
0.498719
4.54452e-35
2.03837e-32
1
-3.63087e-40
3.5146e-41
8.95663e-14
9.01275e-41
6.30912e-06
2.66421e-33
1.46252e-44
2.52633e-06
6.13882e-06
3.69783e-11
3.24756e-34
-2.48066e-39
1.27696e-05
3.24383e-45
8.92358e-44
4.28854e-41
1.09769e-16
3.3716e-46
2.77405e-41
3.61428e-43
1.2026e-38
1.26748e-38
0.999817
1.37837e-45
-1.48303e-39
-2.36476e-43
1.93914e-41
5.02882e-44
2.58261e-41
3.86745e-40
3.01595e-36
6.67834e-47
1.80628e-26
1.18485e-39
8.6367e-43
3.34722e-05
3.35092e-05
1
1.52098e-35
6.3097e-46
-3.73374e-32
1.35468e-41
3.78498e-43
1
2.98422e-42
2.24653e-36
1.78466e-46
1.98487e-43
1.12736e-16
2.65389e-08
5.80328e-45
1.2347e-45
3.91682e-13
0.0137502
0.0100365
1.28197e-37
1
4.35665e-47
4.88396e-40
1.07519e-33
4.77702e-42
2.16531e-34
6.65181e-43
1.16028e-40
1.83097e-42
0.988206
4.26851e-41
1
0.999999
9.36203e-44
5.37753e-47
1
8.16748e-13
1.75744e-36
1.85405e-47
9.9134e-33
4.19855e-33
8.05902e-46
3.68059e-32
1.91134e-43
1.26628e-36
1
1
2.10552e-32
1.35347e-44
1
1.42609e-44
9.67526e-34
1
2.64414e-34
4.01737e-45
9.692e-36
2.63523e-27
0.992881
2.7855e-37
9.75313e-40
0.993145
3.53345e-47
1.21643e-47
1
1.45054e-12
6.86366e-39
-1.27233e-37
4.04055e-42
1.53123e-43
3.95993e-37
8.22798e-48
6.69248e-35
1.70252e-48
4.74698e-44
4.38081e-06
3.97129e-43
1.22844e-35
4.09276e-48
1
1.89758e-45
-1.63287e-39
1.12258e-41
1.68176e-39
0.602232
4.20242e-32
1
1.52948e-40
-2.38987e-44
-2.43566e-40
6.08935e-44
8.39114e-37
4.32928e-46
6.6278e-45
3.18568e-47
7.56594e-45
1.2614e-12
-8.11572e-40
1.25487e-48
4.5307e-46
1.12774e-50
8.17225e-15
9.99068e-49
5.25225e-49
4.40201e-49
1.25362e-45
8.20383e-40
2.33797e-43
2.07951e-37
8.583e-43
3.77996e-47
-2.88637e-46
2.30903e-13
2.54774e-49
-9.24271e-40
-5.94595e-49
2.71686e-41
1.8896e-50
1.30229e-40
3.69854e-36
-3.15305e-45
3.23558e-45
4.43755e-39
4.85893e-50
2.60633e-46
1
1.34127e-42
6.01291e-14
1.033e-38
-1.07898e-44
1.31665e-45
3.00587e-51
1
2.22222e-45
1
-3.73498e-45
4.78706e-48
1.9479e-47
1
3.64841e-49
2.14586e-49
7.27714e-13
2.20991e-35
1
5.4526e-47
-3.83208e-49
1
4.72554e-40
1.33312e-36
-6.16209e-06
2.50572e-47
-4.28362e-40
0
1
-1.62659e-39
-1.61089e-39
1.5214e-47
5.78253e-48
1.28047e-44
3.23202e-49
-8.16922e-45
2.785e-50
1.98742e-47
2.38424e-36
3.67168e-42
3.14488e-27
5.23927e-42
6.74695e-48
1.92422e-44
1.79739e-22
2.25553e-42
1
5.52641e-35
2.42911e-52
1
1.30784e-32
1.32259e-49
5.00075e-32
1.0993e-49
-8.04904e-51
3.5814e-33
8.12429e-49
1.4389e-51
1.64691e-34
3.62088e-51
-7.94507e-44
1.05415e-48
6.04374e-36
1.72085e-37
6.42317e-42
2.35781e-07
1.21931e-51
-2.08662e-53
1.83888e-37
1.95425e-49
-2.40566e-51
1
0.774929
0.649932
4.21411e-39
3.95677e-39
9.6907e-51
1.93487e-51
2.22946e-52
5.40996e-49
1
9.94673e-52
-8.91767e-46
1.9215e-53
5.83666e-52
5.48615e-49
-1.74121e-48
1
1.01204e-40
7.45102e-53
2.27133e-50
4.85108e-40
2.06928e-22
1.17689e-53
1.29403e-55
-1.19166e-39
2.59684e-46
3.63425e-38
4.6415e-41
1.10088e-51
4.60276e-52
2.09309e-44
-4.53933e-48
4.08463e-42
8.69272e-54
2.13987e-39
1
1.12774e-50
1.12774e-50
4.75814e-53
-6.6904e-47
1.2868e-22
-8.59282e-48
4.65929e-56
5.68062e-54
4.44551e-50
8.83334e-27
3.46678e-44
-5.33739e-48
-3.59065e-51
2.33643e-47
0
-2.55569e-40
7.69902e-38
2.75851e-54
-1.39343e-42
4.87694e-42
2.10428e-49
1
1
1
-4.2019e-40
5.23666e-51
2.56321e-58
5.12518e-58
3.06815e-50
7.37122e-56
1
1.23997e-44
1.37448e-13
2.43187e-58
-1.74394e-50
-8.95461e-53
-4.63563e-48
1.17863e-46
2.3816e-60
9.27819e-56
4.06797e-42
1.61672e-13
1.38452e-13
1.24889e-14
1.51235e-47
3.98613e-52
7.28342e-22
0
7.72907e-48
6.28124e-39
-2.23901e-61
7.08459e-54
2.78233e-57
1
-8.79515e-52
2.61057e-42
1.05248e-48
5.88841e-56
1.56025e-52
1.2645e-44
-5.42411e-55
7.89238e-61
1.30522e-58
1.33058e-50
-3.22144e-53
8.2428e-52
1.47257e-54
-1.66776e-51
8.27218e-50
7.62507e-52
3.86274e-25
3.22011e-48
4.16918e-52
-9.6436e-46
1.67452e-63
1
-1.39223e-57
-3.15185e-55
-1.2998e-59
1.32762e-21
6.08921e-41
-3.14936e-51
2.34465e-51
9.91097e-50
-3.99343e-56
1
-3.22082e-53
2.54548e-57
6.85656e-49
3.02416e-51
3.01562e-63
1.39851e-56
1.08149e-54
3.17393e-49
-7.36495e-54
9.19617e-53
2.58893e-51
-4.70451e-58
0
1
1
-4.64596e-62
-5.85603e-53
1.58401e-49
1.27118e-50
0.751327
1.40409e-62
2.61642e-53
-4.83621e-56
2.3816e-58
4.28862e-65
0
2.89166e-42
3.80785e-42
-3.71203e-64
-2.13378e-62
1.10203e-57
-1.00274e-44
1.67088e-21
3.8626e-25
3.48624e-40
1.00936e-28
2.92015e-60
1.71595e-68
-1.31541e-64
7.10712e-47
-2.7932e-60
-1.81133e-58
-2.22615e-49
1
1
-1.38302e-53
-8.44218e-67
4.94693e-56
-4.87926e-59
5.91201e-58
-6.51089e-55
4.05359e-55
8.81837e-55
1.16772e-52
8.65832e-44
2.16055e-56
9.5794e-55
-6.76957e-67
1.01047e-28
-2.54585e-55
1.89215e-14
6.65202e-42
7.71605e-63
2.16081e-56
1.62219e-60
2.86609e-56
8.1799e-55
3.09091e-54
6.13914e-22
-2.66259e-57
5.82715e-33
-3.18582e-60
-6.71308e-58
2.39326e-65
-1.55418e-69
-2.75903e-63
1.14389e-44
7.59759e-50
1.57252e-47
4.06207e-61
7.49263e-51
7.75474e-65
-3.94748e-69
-2.71304e-68
-7.86698e-60
2.16055e-56
5.82924e-33
3.80219e-64
-2.07801e-62
1.13834e-65
3.80919e-58
1.16921e-38
2.11953e-58
-6.4654e-72
2.37522e-56
3.68256e-63
5.19106e-54
1.21958e-48
1.16945e-38
-1.06276e-73
-4.48852e-71
-5.4637e-66
8.66073e-63
1.6531e-64
6.77748e-57
3.65753e-64
5.10615e-54
1.12691e-61
9.49775e-46
9.49701e-46
-4.26323e-61
9.8818e-14
5.09914e-63
4.42429e-63
1.1302e-63
1.51167e-65
4.22615e-63
1
1
2.82363e-62
1
4.43876e-66
1
7.68184e-57
-5.57096e-58
1.59584e-56
-1.2632e-52
3.65901e-52
2.82174e-43
-3.75361e-64
1.1889e-61
1.62942e-42
5.15007e-43
4.77323e-68
4.77323e-68
6.08261e-61
2.72192e-63
1.08456e-65
4.80704e-68
5.98074e-68
2.96513e-65
4.41517e-81
1.15251e-75
1.55028e-72
1.06346e-69
4.68244e-67
1.02994e-69
4.53399e-67
1.51728e-64
1.10948e-05
9.87598e-63
2.00611e-62
1.09187e-65
7.49263e-51
2.21904e-50
1
0.526944
1
6.56602e-55
1.01884e-46
2.42203e-09
2.94013e-16
3.09224e-46
2.24027e-48
0.987456
9.33647e-05
1
1
2.67006e-54
1
1.12462e-09
1
1
3.46029e-05
1
1.83241e-12
0.692735
1
4.62367e-19
4.62675e-19
1
1
1
1
1
1
1
1
1
0.931067
0.693493
0.796661
1
0.309767
1.95197e-10
0.980865
7.5262e-12
7.5262e-12
1
1
1
0.996003
3.87734e-05
0.59881
1
0.980779
0.816172
1
1
1
1
1
1
0.994077
0.968491
1
0.0570703
0.407982
1.1999e-06
1
0.794056
3.65208e-12
0.466119
0.19834
0.93248
0.000192087
0.863421
0.00243369
1.0002e-12
0.666643
0.555306
0.95132
-7.56835e-06
0.992803
8.48991e-11
0.000213005
6.20718e-06
1.46567e-19
0.993272
1.34386e-08
0.993272
0.485608
0.548917
3.49007e-13
3.40252e-07
4.16797e-07
1
0.178232
0.999999
6.38639e-07
1.29173e-10
0.635296
3.29723e-10
9.24995e-07
1
1.74878e-08
2.57791e-09
0.994308
2.72101e-10
0.992147
0.172135
0.173495
1
6.28116e-09
0.999999
1
1.58796e-07
)
;

boundaryField
{
    patch0
    {
        type            zeroGradient;
    }
}


// ************************************************************************* //
