/*--------------------------------*- C++ -*----------------------------------*\
  =========                 |
  \\      /  F ield         | OpenFOAM: The Open Source CFD Toolbox
   \\    /   O peration     | Website:  https://openfoam.org
    \\  /    A nd           | Version:  8
     \\/     M anipulation  |
\*---------------------------------------------------------------------------*/
FoamFile
{
    version     2.0;
    format      ascii;
    class       volScalarField;
    location    "0.25";
    object      epsilon;
}
// * * * * * * * * * * * * * * * * * * * * * * * * * * * * * * * * * * * * * //

dimensions      [0 2 -3 0 0 0 0];

internalField   nonuniform List<scalar> 
1924
(
0.121644
0.123084
0.113082
0.114377
0.120128
0.107689
0.108944
0.0998038
0.101787
0.116692
0.0929847
0.0990261
0.0708116
0.0911101
0.119961
0.119824
0.0728597
0.0976003
0.112522
0.097969
0.0463517
0.090059
0.0981918
0.105798
0.0969301
0.110063
0.105075
0.126881
0.113667
0.1196
0.0935851
0.0975615
0.11284
0.0846592
0.125372
0.106151
0.0874746
0.116424
0.113309
0.0859325
0.0945323
0.0552846
0.102645
0.0966355
0.120054
0.0984474
0.110599
0.127639
0.038209
0.0374826
0.112906
0.0573978
0.088988
0.109502
0.0703313
0.125815
0.108134
0.125232
0.12437
0.117666
0.106069
0.119456
0.104763
0.110187
0.104986
0.12901
0.118493
0.105713
0.103895
0.11047
0.0467456
0.119255
0.109086
0.123214
0.124228
0.0809107
0.129085
0.12689
0.127483
0.1106
0.125756
0.111033
0.117411
0.0444221
0.119682
0.108644
0.127916
0.118325
0.036285
0.0415193
0.118787
0.115376
0.0782798
0.078395
0.045673
0.0924529
0.127193
0.124613
0.117968
0.0785833
0.106741
0.0461879
0.11813
0.117044
0.0786643
0.128646
0.102683
0.0825089
0.117062
0.0788461
0.125474
0.101928
0.120446
0.120505
0.128083
0.038
0.10836
0.119373
0.116111
0.128981
0.110253
0.128518
0.0448228
0.0379774
0.118537
0.0843037
0.0806937
0.127318
0.085339
0.199281
0.125111
0.102961
0.560743
0.121044
0.053981
0.0801109
0.11189
0.104949
0.108509
0.121158
0.128778
0.119136
0.787617
0.852507
0.102256
0.0949865
0.0816405
0.0645106
0.116582
0.116887
0.109833
0.260511
0.0625154
0.100675
0.101707
0.0858297
0.126743
0.111945
0.121739
0.838781
0.121528
0.0793472
0.0995724
0.135546
0.105565
0.0803093
0.0853756
0.16237
0.128756
0.0848907
0.112258
0.0958769
0.128255
0.117625
0.127004
0.0636279
0.119429
0.189477
0.112213
0.0968848
0.0729649
0.119346
0.127405
0.0898999
0.037074
0.117257
0.0621361
0.0782223
0.127656
0.124175
0.0733992
0.0931278
0.121521
0.0944919
0.0890087
0.275157
0.0837948
0.0638377
0.0698525
0.063201
0.383961
0.124563
0.0822056
0.0891962
0.115967
0.0724709
0.0911772
0.0546828
0.0598748
0.732691
0.14341
0.0895719
0.114724
0.0943956
0.078457
0.128644
0.116029
0.0757995
0.0889382
0.12678
0.0822126
0.116568
0.0823268
0.114361
0.0880945
0.0886734
0.118622
0.127606
0.0928841
0.064307
0.416498
0.118394
0.0688158
0.342422
0.0983132
0.41734
0.118525
0.086566
0.0844243
0.290665
0.11864
0.0681492
0.119767
0.0556392
0.581506
0.0486208
0.0864901
0.12666
0.127926
0.127946
0.117012
0.17719
0.100522
0.0886241
0.127379
0.119901
0.113864
0.071586
0.0842669
0.0859301
0.0886758
0.0845463
0.117498
0.12877
0.104251
0.122175
0.0643403
0.127551
0.0765422
0.330393
0.0719796
0.113268
0.0998394
0.0740904
0.118021
0.125509
0.0871539
0.102881
0.0911326
0.0655312
0.336048
0.433861
0.118715
0.102366
0.108624
0.124991
0.118589
0.20065
0.0883421
0.0689937
0.0854332
0.112716
0.11057
0.121601
0.0359203
0.108344
0.119808
0.0593451
0.12691
0.121169
0.358626
0.0897444
0.121739
0.115656
0.0888947
0.0813381
0.0771106
0.122472
0.0727801
0.122492
0.0514425
0.116827
0.107466
0.103528
0.12561
0.078606
0.0867145
0.0891134
0.0866806
0.0923264
0.11809
0.0731785
0.0900196
0.114564
0.095406
0.126558
0.0721882
0.0765246
0.122669
0.11659
0.0663022
0.117807
0.106956
0.0921413
0.124178
0.11328
0.117591
0.0884699
0.109976
0.0882757
0.126984
0.117964
0.104657
0.0610929
0.12076
0.118828
0.510671
0.117939
0.116078
0.0878523
0.110783
0.595269
0.335121
0.122002
0.0549322
0.12704
0.0409416
0.0952436
0.0784736
0.0778294
0.116531
0.121182
0.122354
0.117578
0.11187
0.0869014
0.108361
0.0827726
0.113314
0.0933752
0.123076
0.0923878
0.0814434
0.11853
0.117166
0.136545
0.120881
0.120432
0.11071
0.11787
0.118147
0.126889
0.0738665
0.0974028
0.0714
0.123553
0.123012
0.117493
0.116458
0.0860386
0.401914
0.112738
0.0792218
0.117371
0.0975597
0.848095
0.116251
0.113072
0.119573
0.118831
0.100449
0.124405
0.0721712
0.078285
0.400669
0.117092
0.124425
0.117346
0.0806412
0.115433
0.117645
0.114454
0.0979669
0.0858217
0.115088
0.115219
0.125506
0.121018
0.111782
0.122911
0.121309
0.0833132
0.124877
0.0597788
0.115345
0.122227
0.12549
0.101864
0.113474
0.117173
0.117021
0.125889
0.117156
0.116494
0.10536
0.117221
0.122556
0.0833681
0.0901168
0.115749
0.0723558
0.11709
0.0947025
0.099128
0.11726
1.04515
0.11844
0.122685
0.0839631
0.116946
0.11985
0.114977
0.105328
0.11796
0.116981
0.0930317
0.123392
0.120032
0.116662
0.117797
0.125991
0.115708
0.0912195
0.116771
0.0741369
0.116888
0.116813
0.117091
0.0915635
0.124915
0.116672
0.11608
0.114451
0.123767
0.0899254
0.126169
0.0983042
0.10643
0.117173
0.118256
0.11846
0.107734
0.116498
0.116766
0.116238
0.11668
0.116716
0.117845
0.11658
0.123959
0.0855179
0.116677
0.116422
0.117226
0.120961
0.124436
0.117349
0.116514
0.11676
0.113976
0.12125
0.119726
0.0801693
0.116593
0.0722533
0.114928
0.120053
0.116687
0.116212
0.122125
0.12421
0.124767
0.116461
0.105666
0.116412
0.116367
0.116613
0.100369
0.0993188
0.117815
0.116223
0.119778
0.124785
0.122441
0.111907
0.108176
0.116594
0.112841
0.116597
0.118079
0.116227
0.109765
0.1164
0.113953
0.0854205
0.116284
0.113317
0.0896712
0.0916067
0.1165
0.116435
0.113837
0.114475
0.123145
0.123137
0.116106
0.100051
0.106187
0.116642
0.122251
0.116185
0.116061
0.1182
0.116101
0.116163
0.114398
0.113875
0.114116
0.111311
0.0954512
0.116374
0.116011
0.0814924
0.116021
0.0806755
0.106661
0.124949
0.11644
0.107958
0.116334
0.123417
0.116116
0.116151
0.11602
0.115998
0.115941
0.115414
0.0754139
0.120777
0.116068
0.11622
0.117034
0.101754
0.115983
0.106135
0.114931
0.119965
0.115668
0.123433
0.117106
0.116061
0.11593
0.267009
0.109584
0.114852
0.121057
0.115907
0.127608
0.116241
0.115967
0.0763239
0.119704
0.118782
0.096336
0.115966
0.115815
0.113028
0.12317
0.100792
0.114738
0.115954
0.118867
0.115657
0.124388
0.11602
0.116564
0.114194
0.0868688
0.0919668
0.107605
0.121737
0.123525
0.111764
0.115811
0.11502
0.115442
0.116282
0.116696
0.116165
0.1168
0.117378
0.115631
0.127332
0.115816
0.115765
0.0839744
0.115654
0.103416
0.115662
0.121964
0.115619
0.115636
0.115732
0.115581
0.114583
0.118904
0.115622
0.117681
0.115608
0.0861967
0.115234
0.11561
0.115819
0.116682
0.116487
0.115604
0.115199
0.122763
0.115519
0.116869
0.111725
0.11635
0.112949
0.121924
0.115579
0.0932327
0.115391
0.117041
0.115166
0.115505
0.115403
0.121728
0.100848
0.12332
0.118654
0.121907
0.110299
0.117646
0.114497
0.117113
0.119781
0.119537
0.116118
0.115825
0.115254
0.117751
0.115537
0.0962336
0.120384
0.116598
0.117634
0.119053
0.111275
0.115158
0.114899
0.118827
0.117142
0.116256
0.115187
0.115063
0.119914
0.11494
0.115224
0.0849499
0.107082
0.115202
0.115277
0.11513
0.120553
0.115013
0.114852
0.115224
0.115259
0.0983475
0.115017
0.117448
0.115274
0.114823
0.118597
0.0978902
0.113013
0.116424
0.121458
0.11705
0.117335
0.110184
0.278228
0.0873099
0.0955549
0.120406
0.115259
0.116972
0.105805
0.114869
0.115785
0.11492
0.115508
0.115252
0.116055
0.114605
0.109542
0.115248
0.119555
0.14243
0.108521
0.267625
0.114794
0.117065
0.114709
0.120243
0.114749
0.114345
0.112487
0.0942054
0.104093
0.117771
0.0810371
0.0937401
0.100121
0.116159
0.098941
0.115229
0.117069
0.117857
0.114583
0.116835
0.114695
0.114544
0.116341
0.114806
0.116683
0.114794
0.111492
0.114957
0.0873723
0.119173
0.114501
0.114627
0.116485
0.114919
0.114433
0.115744
0.118568
0.0806538
0.1049
0.106423
0.117546
0.114874
0.118454
0.11177
0.116696
0.113691
0.118662
0.114949
0.114294
0.117268
0.119287
0.0983659
0.11486
0.113766
0.100314
0.0959937
0.11447
0.0784483
0.114168
0.117908
0.090837
0.116419
0.114961
0.114262
0.0980869
0.119011
0.111774
0.176526
0.113746
0.116451
0.115721
0.113732
0.114332
0.114766
0.113267
0.118587
0.117857
0.114491
0.115167
0.118681
0.114017
0.115405
0.114949
0.116363
0.116894
0.111588
0.113645
0.114415
0.114048
0.114369
0.113612
0.115443
0.1158
0.340461
0.109062
0.176461
0.114507
0.114223
0.0459468
0.112961
0.114515
0.113775
0.115909
0.113112
0.117249
0.114917
0.115437
0.11294
0.116643
0.114647
0.112581
0.113487
0.105878
0.0974384
0.115335
0.117659
0.114646
0.0844466
0.112994
0.114678
0.108387
0.114105
0.115561
0.115868
0.114836
0.113117
0.112397
0.119189
0.113294
0.0762998
0.110568
0.113986
0.118501
0.114585
0.0768159
0.113029
0.115676
0.102263
0.114061
0.113822
0.114673
0.10551
0.114879
0.115118
0.113082
0.108219
0.316021
0.116859
0.118119
0.118189
0.117828
0.116098
0.112334
0.117023
0.115418
0.0972121
0.112873
0.0860087
0.114001
0.113555
0.117701
0.1125
0.114173
0.11753
0.114138
0.0728293
0.117351
0.588808
0.0925026
0.114662
0.113333
0.1139
0.112671
0.0988551
0.0894985
0.116806
0.112861
0.102549
0.114004
0.115289
0.107102
0.118766
0.118464
0.114261
0.11244
0.11586
0.113616
0.110467
0.114397
0.0934356
0.115094
0.110638
0.11427
0.114631
0.0986486
0.562066
0.112534
0.107065
0.180361
0.114352
0.112194
0.114398
0.114293
0.116257
0.109685
0.113355
0.481372
0.110706
0.114892
0.558869
0.111805
0.222491
0.114418
0.115277
0.109117
0.10448
0.11068
0.109822
0.104328
0.114405
0.117033
0.112632
0.113799
0.106999
0.0965458
0.110573
0.0912685
0.113711
0.116871
0.071205
0.113855
0.113932
0.114696
0.0665259
0.116025
0.113962
0.109314
0.110401
0.113427
0.114481
0.111941
0.0879151
0.0745462
0.109028
0.0946418
0.11438
0.102913
0.110183
0.109116
0.0932031
0.108738
0.114699
0.114731
0.114196
0.113169
0.111156
0.108001
0.114935
0.109091
0.0977328
0.116355
0.113627
0.116871
0.0906846
0.109931
0.112053
0.115421
0.114124
0.116317
0.112766
0.114129
0.114046
0.108966
0.112417
0.117209
0.11629
0.11725
0.22071
0.0924488
0.0923391
0.114149
0.108757
0.114254
0.124077
0.114009
0.0954332
0.107691
0.110732
0.114537
0.0842186
0.0910247
0.108485
0.111582
0.109933
0.111709
0.108524
0.116146
0.117828
0.114333
0.11509
0.113246
0.100943
0.113618
0.113536
0.114128
0.108169
0.116875
0.112951
0.109659
0.126406
0.0996945
0.112999
0.116732
0.114114
0.102968
0.113747
0.10693
0.103153
0.0691192
0.112991
0.0891289
0.116369
0.112218
0.0985373
0.102717
0.115532
0.105539
0.10783
0.103226
0.113777
0.11402
0.17679
0.114012
0.103179
0.111498
0.210212
0.113896
0.103023
0.0914297
0.106904
0.102725
0.0865775
0.113867
0.115208
0.113602
0.102778
0.113861
0.305356
0.157913
0.109363
0.113879
0.116182
0.126564
0.113886
0.109627
0.0993698
0.102467
0.101371
0.260725
0.113077
0.0605181
0.100875
0.113373
0.113805
0.112835
0.110463
0.113667
0.240369
0.294247
0.102061
0.110591
0.107479
0.116084
0.0994117
0.112027
0.113451
0.105556
0.114102
0.115548
0.112197
0.0667682
0.113784
0.0993127
0.190934
0.0837945
0.113286
0.113494
0.115588
0.0990797
0.0992183
0.111304
0.109817
0.0986567
0.0895037
0.0987372
0.113392
0.297854
0.0823818
0.0998163
0.102111
0.188448
0.109096
0.098316
0.140601
0.148784
0.113653
0.0947666
0.115282
0.113083
0.116113
0.116425
0.110918
0.113302
0.110006
0.113648
0.113574
0.29305
0.185467
0.107179
0.116752
0.10096
0.113634
0.0800471
0.0978466
0.116394
0.0988722
0.0971614
0.103794
0.112889
0.113202
0.113549
0.0713579
0.125158
0.113121
0.112962
0.0961029
0.114147
0.0975295
0.113388
0.0860102
0.172624
0.101709
0.112917
0.111838
0.192511
0.0862426
0.112678
0.0661403
0.123734
0.110745
0.0883988
0.11112
0.0863298
0.0980385
0.112778
0.115554
0.113419
0.0857049
0.113096
0.0862688
0.10885
0.0953489
0.0773556
0.110629
0.0860782
0.115938
0.107368
0.113447
0.0581434
0.100923
0.110734
0.0973502
0.112053
0.22295
0.194652
0.113213
0.106908
0.0857826
0.109719
0.115262
0.107819
0.0944456
0.0608808
0.19644
0.109754
0.101308
0.113289
0.114897
0.10899
0.108741
0.109014
0.0857316
0.112577
0.0776327
0.116093
0.110856
0.112882
0.0878108
0.0805083
0.114128
0.0854072
0.113315
0.077748
0.412242
0.113387
0.0777134
0.109185
0.0775185
0.110676
0.139424
0.0986846
0.0832638
0.211165
0.113188
0.110787
0.0771878
0.281287
0.0863358
0.0968774
0.0944313
0.0827924
0.0767537
0.0775179
0.115352
0.111659
0.0931695
0.0985812
0.0814869
0.0734078
0.10859
0.113447
0.110942
0.0836867
0.10107
0.0831982
0.110541
0.102546
0.168748
0.109199
0.18964
0.112521
0.110664
0.112665
0.10667
0.10323
0.0762466
0.109092
0.0873495
0.112365
0.0916368
0.102563
0.108958
0.113087
0.0849716
0.31218
0.112758
0.10096
0.0849182
0.115396
0.103139
0.0702656
0.108958
0.461653
0.0778754
0.102356
0.128367
0.40245
0.0955321
0.0964931
0.109954
0.127344
0.0797148
0.0994239
0.112147
0.182798
0.0986948
0.103108
0.0993105
0.075692
0.113066
0.249316
0.0984235
0.111908
0.073599
0.110383
0.115113
0.0749106
0.11295
0.113036
0.102505
0.1004
0.103066
0.113998
0.26127
0.298658
0.103933
0.0757174
0.08635
0.266299
0.112444
0.0992314
0.246194
0.1088
0.0844345
0.0985399
0.115596
0.294758
0.294121
0.0856364
0.102104
0.187424
0.2542
0.214362
0.0854289
0.0915186
0.0771938
0.0783228
0.108351
0.110519
0.110766
0.103068
0.108841
0.111926
0.273556
0.112726
0.193121
0.228153
0.113322
0.0983084
0.0800994
0.298877
0.11148
0.0719307
0.106438
0.149084
0.0767718
0.151444
0.110207
0.165444
0.0912847
0.0673606
0.153791
0.115084
0.200464
0.0991673
0.100589
0.131394
0.15598
0.0857484
0.15799
0.0945381
0.304416
0.159849
0.0750571
0.0883115
0.0772532
0.0790118
0.338065
0.291956
0.161484
0.112555
0.0944226
0.10862
0.112335
0.0852484
0.0961828
0.0841748
0.110018
0.0986579
0.112203
0.149301
0.0847347
0.0620594
0.102996
0.102148
0.112657
0.0958371
0.0590149
0.251044
0.0779607
0.162805
0.115532
0.114153
0.111693
0.083968
0.0990718
0.0695748
0.0858597
0.108423
0.277967
0.0969768
0.101798
0.0705142
0.144287
0.0717033
0.0772855
0.0837148
0.0980479
0.109817
0.143869
0.112133
0.108118
0.141915
0.102892
0.114798
0.157528
0.0771643
0.109833
0.108563
0.163655
0.0763145
0.111259
0.106216
0.140427
0.111866
0.0745591
0.0768398
0.108215
0.222569
0.112023
0.0639346
0.110554
0.113702
0.111402
0.0758939
0.080431
0.11024
0.0686957
0.113025
0.0652679
0.0989428
0.338314
0.172678
0.152171
0.260869
0.100253
0.187632
0.111173
0.0859212
0.0682388
0.162342
0.236205
0.0846488
0.10959
0.111398
0.11448
0.0779869
0.0986087
0.102956
0.139114
0.102761
0.0750023
0.109262
0.110828
0.0772504
0.110877
0.095888
0.0811125
0.0757907
0.162977
0.107989
0.110216
0.0807669
0.107863
0.0621447
0.207841
0.0832864
0.124951
0.206197
0.102607
0.203238
0.107701
0.10136
0.198503
0.0987856
0.153561
0.192138
0.108581
0.0838833
0.137494
0.184528
0.176196
0.105963
0.10622
0.107188
0.0976196
0.0834671
0.109593
0.0755443
0.107992
0.504615
0.459509
0.167781
0.0999465
0.0859426
0.102417
0.145092
0.109371
0.168987
0.15454
0.107411
0.10213
0.148389
0.13265
0.086237
0.057434
0.15989
0.143158
0.0986052
0.221477
0.0747908
0.106842
0.101519
0.0989001
0.105594
0.210187
0.20423
0.0771749
0.0984001
0.199983
0.108058
0.160131
0.10595
0.0741934
0.301414
0.155704
0.196873
0.154683
0.0854057
0.0709363
0.109737
0.0976768
0.0981367
0.114245
0.0766485
0.0996469
0.113186
0.10621
0.194413
0.112335
0.0850247
0.0956155
0.109169
0.109001
0.153194
0.112498
0.10786
0.206057
0.118067
0.102492
0.104754
0.0999499
0.0856182
0.198997
0.0857892
0.256779
0.158027
0.119888
0.0965934
0.108942
0.100648
0.0991962
0.110117
0.0852016
0.141934
0.0953286
0.185008
0.174219
0.0654718
0.187054
0.0859275
0.14137
0.10274
0.112983
0.083039
0.0969303
0.085878
0.0827647
0.0532834
0.111652
0.151786
0.176147
0.102372
0.206503
0.205545
0.107742
0.0762701
0.0765882
0.231525
0.0980929
0.195736
0.155749
0.107247
0.11307
0.214091
0.149899
0.0949444
0.208894
0.114469
0.0840549
0.188221
0.0959197
0.0750667
0.0937981
0.129594
0.0826761
0.110226
0.118475
0.151823
0.106036
0.0505597
0.0770699
0.105803
0.0975128
0.106829
0.0755492
0.0767832
0.20528
0.100164
0.0995751
0.0941745
0.107235
0.0949981
0.0766638
0.14717
0.207252
0.0809834
0.110687
0.0841497
0.0688269
0.061051
0.15931
0.191942
0.0980422
0.0819686
0.15983
0.104214
0.156808
0.154621
0.0736766
0.0870115
0.0920971
0.0823569
0.198874
0.208153
0.0738576
0.15483
0.158566
0.159701
0.0735506
0.0725118
0.0865396
0.0958109
0.0819636
0.108195
0.163414
0.0958682
0.0689559
0.0934403
0.141043
0.204319
0.094337
0.101984
0.0769382
0.0945603
0.0732915
0.0803458
0.101082
0.15754
0.210068
0.0811039
0.11804
0.0735659
0.169417
0.0744314
0.174069
0.156767
0.187788
0.0920804
0.181111
0.0921902
0.155961
0.0787353
0.0743521
0.164643
0.149515
0.0725128
0.152575
0.151541
0.15593
0.0807972
0.185304
0.0791704
0.159003
0.0581653
0.0889613
0.0685518
0.204985
0.200772
0.140044
0.138752
0.157712
0.151161
0.178738
0.150249
0.0715256
0.0769574
0.084614
0.0729521
0.191194
0.131874
0.124911
0.0577043
0.0736981
0.0679409
0.0723844
0.073275
0.0831957
0.0709625
0.163901
0.133911
0.0671393
0.16725
0.127312
0.154068
0.117346
0.0563006
0.0625165
0.117211
0.0611249
0.0830712
0.0744496
0.0751188
0.122561
0.1531
0.15061
0.183352
0.151138
0.154879
0.156355
0.148767
0.150052
0.156004
0.15433
0.134739
0.183974
0.202926
0.172252
0.131819
0.191961
0.137005
0.120837
0.0774251
0.078063
0.120634
0.129074
0.144004
0.142197
0.197332
0.0545619
0.127883
0.0668531
0.0717452
0.0696744
0.148867
0.152804
0.104
0.109414
0.094734
0.0801927
0.0567168
0.109412
0.0813502
0.0555604
0.12403
0.138829
0.128966
0.100921
0.399415
0.0920802
0.429059
0.1142
0.0407823
0.107722
0.0933838
0.498012
0.0934793
0.0627606
0.108051
0.155856
0.151207
0.450244
0.318926
0.498014
0.297958
0.403068
0.354551
0.104898
0.251439
0.0961789
0.443473
0.294581
0.352627
0.277749
0.0729472
0.115438
0.406123
0.811016
0.871485
0.101865
0.10643
0.378369
0.0849354
0.128941
0.0653334
0.0404933
0.133094
0.377246
0.203607
0.160514
0.204511
0.196294
0.155138
0.174396
0.180822
0.164664
0.0992114
0.0746229
0.052711
0.128622
0.257073
0.214794
0.416711
0.0561233
0.0613058
0.253254
0.0854238
0.0673892
0.0636639
0.104613
0.233814
0.0486429
0.0708125
0.0652766
0.28468
0.124129
0.0675522
0.0863879
0.185876
0.0864246
0.120834
0.0771137
0.290554
0.336578
0.107948
0.0932854
0.114997
0.0401394
0.0515812
0.213003
0.0937094
0.123781
0.046902
0.123514
0.0993523
0.139824
0.102008
0.121964
0.0817556
0.111142
0.0910369
0.0458161
0.0524161
0.382301
0.108721
0.155067
0.334529
0.117103
)
;

boundaryField
{
    patch0
    {
        type            epsilonWallFunction;
        value           nonuniform List<scalar> 
4010
(
0.121644
0.121644
0.123084
0.123084
0.113082
0.113082
0.114377
0.114377
0.120128
0.120128
0.107689
0.107689
0.108944
0.108944
0.0998038
0.0998038
0.101787
0.101787
0.116692
0.116692
0.0929847
0.0929847
0.0990261
0.0990261
0.0708116
0.0708116
0.0911101
0.0911101
0.119961
0.119961
0.119824
0.119824
0.0728597
0.0728597
0.0976003
0.0976003
0.112522
0.112522
0.097969
0.097969
0.0463517
0.0463517
0.090059
0.090059
0.0981918
0.0981918
0.105798
0.105798
0.0969301
0.0969301
0.110063
0.110063
0.105075
0.105075
0.126881
0.126881
0.113667
0.113667
0.1196
0.1196
0.0935851
0.0935851
0.0975615
0.0975615
0.11284
0.11284
0.0846592
0.0846592
0.125372
0.125372
0.106151
0.106151
0.0874746
0.0874746
0.116424
0.116424
0.113309
0.113309
0.0859325
0.0859325
0.0945323
0.0945323
0.0552846
0.0552846
0.102645
0.102645
0.0966355
0.0966355
0.120054
0.120054
0.0984474
0.0984474
0.110599
0.110599
0.127639
0.127639
0.038209
0.038209
0.0374826
0.0374826
0.112906
0.112906
0.0573978
0.0573978
0.088988
0.088988
0.109502
0.109502
0.0703313
0.0703313
0.125815
0.125815
0.108134
0.108134
0.125232
0.125232
0.12437
0.12437
0.117666
0.117666
0.106069
0.106069
0.119456
0.119456
0.104763
0.104763
0.110187
0.110187
0.104986
0.104986
0.12901
0.12901
0.118493
0.118493
0.105713
0.105713
0.103895
0.103895
0.11047
0.11047
0.0467456
0.0467456
0.119255
0.119255
0.109086
0.109086
0.123214
0.123214
0.124228
0.124228
0.0809107
0.0809107
0.129085
0.129085
0.12689
0.12689
0.127483
0.127483
0.1106
0.1106
0.125756
0.125756
0.111033
0.111033
0.117411
0.117411
0.0444221
0.0444221
0.119682
0.119682
0.108644
0.108644
0.127916
0.127916
0.118325
0.118325
0.036285
0.036285
0.0415193
0.0415193
0.118787
0.118787
0.115376
0.115376
0.0782798
0.0782798
0.078395
0.078395
0.045673
0.045673
0.0924529
0.0924529
0.127193
0.127193
0.124613
0.124613
0.117968
0.117968
0.0785833
0.0785833
0.106741
0.106741
0.0461879
0.0461879
0.11813
0.11813
0.117044
0.117044
0.0786643
0.0786643
0.128646
0.128646
0.102683
0.102683
0.0825089
0.0825089
0.117062
0.117062
0.0788461
0.0788461
0.125474
0.125474
0.101928
0.101928
0.120446
0.120446
0.120505
0.120505
0.128083
0.128083
0.038
0.038
0.10836
0.10836
0.119373
0.119373
0.116111
0.116111
0.128981
0.128981
0.110253
0.110253
0.128518
0.128518
0.0448228
0.0448228
0.0379774
0.0379774
0.118537
0.118537
0.0843037
0.0843037
0.0806937
0.0806937
0.127318
0.127318
0.085339
0.085339
0.199281
0.199281
0.125111
0.125111
0.102961
0.102961
0.560743
0.560743
0.121044
0.121044
0.053981
0.053981
0.0801109
0.0801109
0.11189
0.11189
0.104949
0.104949
0.108509
0.108509
0.121158
0.121158
0.128778
0.128778
0.119136
0.119136
0.787617
0.787617
0.787617
0.852507
0.852507
0.852507
0.102256
0.102256
0.0949865
0.0949865
0.0816405
0.0816405
0.0645106
0.0645106
0.116582
0.116582
0.116887
0.116887
0.109833
0.109833
0.260511
0.260511
0.260511
0.0625154
0.0625154
0.100675
0.100675
0.101707
0.101707
0.0858297
0.0858297
0.126743
0.126743
0.111945
0.111945
0.121739
0.121739
0.838781
0.838781
0.121528
0.121528
0.0793472
0.0793472
0.0995724
0.0995724
0.135546
0.135546
0.105565
0.105565
0.0803093
0.0803093
0.0853756
0.0853756
0.16237
0.16237
0.128756
0.128756
0.0848907
0.0848907
0.112258
0.112258
0.0958769
0.0958769
0.128255
0.128255
0.117625
0.117625
0.127004
0.127004
0.0636279
0.0636279
0.119429
0.119429
0.189477
0.189477
0.112213
0.112213
0.0968848
0.0968848
0.0729649
0.0729649
0.119346
0.119346
0.127405
0.127405
0.0898999
0.0898999
0.037074
0.037074
0.117257
0.117257
0.0621361
0.0621361
0.0782223
0.0782223
0.127656
0.127656
0.124175
0.124175
0.0733992
0.0733992
0.0931278
0.0931278
0.121521
0.121521
0.0944919
0.0944919
0.0890087
0.0890087
0.275157
0.275157
0.275157
0.0837948
0.0837948
0.0638377
0.0638377
0.0698525
0.0698525
0.063201
0.063201
0.383961
0.383961
0.124563
0.124563
0.0822056
0.0822056
0.0891962
0.0891962
0.115967
0.115967
0.0724709
0.0724709
0.0911772
0.0911772
0.0546828
0.0546828
0.0598748
0.0598748
0.732691
0.732691
0.732691
0.14341
0.14341
0.0895719
0.0895719
0.114724
0.114724
0.0943956
0.0943956
0.078457
0.078457
0.128644
0.128644
0.116029
0.116029
0.0757995
0.0757995
0.0889382
0.0889382
0.12678
0.12678
0.0822126
0.0822126
0.116568
0.116568
0.0823268
0.0823268
0.114361
0.114361
0.0880945
0.0880945
0.0886734
0.0886734
0.118622
0.118622
0.127606
0.127606
0.0928841
0.0928841
0.064307
0.064307
0.416498
0.416498
0.118394
0.118394
0.0688158
0.0688158
0.342422
0.342422
0.0983132
0.0983132
0.41734
0.41734
0.41734
0.118525
0.118525
0.086566
0.086566
0.0844243
0.0844243
0.290665
0.290665
0.290665
0.11864
0.11864
0.0681492
0.0681492
0.119767
0.119767
0.0556392
0.0556392
0.581506
0.581506
0.0486208
0.0486208
0.0864901
0.0864901
0.12666
0.12666
0.127926
0.127926
0.127946
0.127946
0.117012
0.117012
0.17719
0.17719
0.100522
0.100522
0.0886241
0.0886241
0.127379
0.127379
0.119901
0.119901
0.113864
0.113864
0.071586
0.071586
0.0842669
0.0842669
0.0859301
0.0859301
0.0886758
0.0886758
0.0845463
0.0845463
0.117498
0.117498
0.12877
0.12877
0.104251
0.104251
0.122175
0.122175
0.0643403
0.0643403
0.127551
0.127551
0.0765422
0.0765422
0.330393
0.330393
0.0719796
0.0719796
0.113268
0.113268
0.0998394
0.0998394
0.0740904
0.0740904
0.118021
0.118021
0.125509
0.125509
0.0871539
0.0871539
0.102881
0.102881
0.0911326
0.0911326
0.0655312
0.0655312
0.336048
0.336048
0.433861
0.433861
0.433861
0.118715
0.118715
0.102366
0.102366
0.108624
0.108624
0.124991
0.124991
0.118589
0.118589
0.20065
0.20065
0.0883421
0.0883421
0.0689937
0.0689937
0.0854332
0.0854332
0.112716
0.112716
0.11057
0.11057
0.121601
0.121601
0.0359203
0.0359203
0.108344
0.108344
0.119808
0.119808
0.0593451
0.0593451
0.12691
0.12691
0.121169
0.121169
0.358626
0.358626
0.358626
0.0897444
0.0897444
0.121739
0.121739
0.115656
0.115656
0.0888947
0.0888947
0.0813381
0.0813381
0.0771106
0.0771106
0.122472
0.122472
0.0727801
0.0727801
0.122492
0.122492
0.0514425
0.0514425
0.116827
0.116827
0.107466
0.107466
0.103528
0.103528
0.12561
0.12561
0.078606
0.078606
0.0867145
0.0867145
0.0891134
0.0891134
0.0866806
0.0866806
0.0923264
0.0923264
0.11809
0.11809
0.0731785
0.0731785
0.0900196
0.0900196
0.114564
0.114564
0.095406
0.095406
0.126558
0.126558
0.0721882
0.0721882
0.0765246
0.0765246
0.122669
0.122669
0.11659
0.11659
0.0663022
0.0663022
0.117807
0.117807
0.106956
0.106956
0.0921413
0.0921413
0.124178
0.124178
0.11328
0.11328
0.117591
0.117591
0.0884699
0.0884699
0.109976
0.109976
0.0882757
0.0882757
0.126984
0.126984
0.117964
0.117964
0.104657
0.104657
0.0610929
0.0610929
0.12076
0.12076
0.118828
0.118828
0.510671
0.510671
0.117939
0.117939
0.116078
0.116078
0.0878523
0.0878523
0.110783
0.110783
0.595269
0.595269
0.335121
0.335121
0.122002
0.122002
0.0549322
0.0549322
0.12704
0.12704
0.0409416
0.0409416
0.0952436
0.0952436
0.0784736
0.0784736
0.0778294
0.0778294
0.116531
0.116531
0.121182
0.121182
0.122354
0.122354
0.117578
0.117578
0.11187
0.11187
0.0869014
0.0869014
0.108361
0.108361
0.0827726
0.0827726
0.113314
0.113314
0.0933752
0.0933752
0.123076
0.123076
0.0923878
0.0923878
0.0814434
0.0814434
0.11853
0.11853
0.117166
0.117166
0.136545
0.136545
0.120881
0.120881
0.120432
0.120432
0.11071
0.11071
0.11787
0.11787
0.118147
0.118147
0.126889
0.126889
0.0738665
0.0738665
0.0974028
0.0974028
0.0714
0.0714
0.123553
0.123553
0.123012
0.123012
0.117493
0.117493
0.116458
0.116458
0.0860386
0.0860386
0.401914
0.401914
0.112738
0.112738
0.0792218
0.0792218
0.117371
0.117371
0.0975597
0.0975597
0.848095
0.848095
0.848095
0.116251
0.116251
0.113072
0.113072
0.119573
0.119573
0.118831
0.118831
0.100449
0.100449
0.124405
0.124405
0.0721712
0.0721712
0.078285
0.078285
0.400669
0.400669
0.400669
0.117092
0.117092
0.124425
0.124425
0.117346
0.117346
0.0806412
0.0806412
0.115433
0.115433
0.117645
0.117645
0.114454
0.114454
0.0979669
0.0979669
0.0858217
0.0858217
0.115088
0.115088
0.115219
0.115219
0.125506
0.125506
0.121018
0.121018
0.111782
0.111782
0.122911
0.122911
0.121309
0.121309
0.0833132
0.0833132
0.124877
0.124877
0.0597788
0.0597788
0.115345
0.115345
0.122227
0.122227
0.12549
0.12549
0.101864
0.101864
0.113474
0.113474
0.117173
0.117173
0.117021
0.117021
0.125889
0.125889
0.117156
0.117156
0.116494
0.116494
0.10536
0.10536
0.117221
0.117221
0.122556
0.122556
0.0833681
0.0833681
0.0901168
0.0901168
0.115749
0.115749
0.0723558
0.0723558
0.11709
0.11709
0.0947025
0.0947025
0.099128
0.099128
0.11726
0.11726
1.04515
1.04515
1.04515
0.11844
0.11844
0.122685
0.122685
0.0839631
0.0839631
0.116946
0.116946
0.11985
0.11985
0.114977
0.114977
0.105328
0.105328
0.11796
0.11796
0.116981
0.116981
0.0930317
0.0930317
0.123392
0.123392
0.120032
0.120032
0.116662
0.116662
0.117797
0.117797
0.125991
0.125991
0.115708
0.115708
0.0912195
0.0912195
0.116771
0.116771
0.0741369
0.0741369
0.116888
0.116888
0.116813
0.116813
0.117091
0.117091
0.0915635
0.0915635
0.124915
0.124915
0.116672
0.116672
0.11608
0.11608
0.114451
0.114451
0.123767
0.123767
0.0899254
0.0899254
0.126169
0.126169
0.0983042
0.0983042
0.10643
0.10643
0.117173
0.117173
0.118256
0.118256
0.11846
0.11846
0.107734
0.107734
0.116498
0.116498
0.116766
0.116766
0.116238
0.116238
0.11668
0.11668
0.116716
0.116716
0.117845
0.117845
0.11658
0.11658
0.123959
0.123959
0.0855179
0.0855179
0.116677
0.116677
0.116422
0.116422
0.117226
0.117226
0.120961
0.120961
0.124436
0.124436
0.117349
0.117349
0.116514
0.116514
0.11676
0.11676
0.113976
0.113976
0.12125
0.12125
0.119726
0.119726
0.0801693
0.0801693
0.116593
0.116593
0.0722533
0.0722533
0.114928
0.114928
0.120053
0.120053
0.116687
0.116687
0.116212
0.116212
0.122125
0.122125
0.12421
0.12421
0.124767
0.124767
0.116461
0.116461
0.105666
0.105666
0.116412
0.116412
0.116367
0.116367
0.116613
0.116613
0.100369
0.100369
0.0993188
0.0993188
0.117815
0.117815
0.116223
0.116223
0.119778
0.119778
0.124785
0.124785
0.122441
0.122441
0.111907
0.111907
0.108176
0.108176
0.116594
0.116594
0.112841
0.112841
0.116597
0.116597
0.118079
0.118079
0.116227
0.116227
0.109765
0.109765
0.1164
0.1164
0.113953
0.113953
0.0854205
0.0854205
0.116284
0.116284
0.113317
0.113317
0.0896712
0.0896712
0.0916067
0.0916067
0.1165
0.1165
0.116435
0.116435
0.113837
0.113837
0.114475
0.114475
0.123145
0.123145
0.123137
0.123137
0.116106
0.116106
0.100051
0.100051
0.106187
0.106187
0.116642
0.116642
0.122251
0.122251
0.116185
0.116185
0.116061
0.116061
0.1182
0.1182
0.116101
0.116101
0.116163
0.116163
0.114398
0.114398
0.113875
0.113875
0.114116
0.114116
0.111311
0.111311
0.0954512
0.0954512
0.116374
0.116374
0.116011
0.116011
0.0814924
0.0814924
0.116021
0.116021
0.0806755
0.0806755
0.106661
0.106661
0.124949
0.124949
0.11644
0.11644
0.107958
0.107958
0.116334
0.116334
0.123417
0.123417
0.116116
0.116116
0.116151
0.116151
0.11602
0.11602
0.115998
0.115998
0.115941
0.115941
0.115414
0.115414
0.0754139
0.0754139
0.120777
0.120777
0.116068
0.116068
0.11622
0.11622
0.117034
0.117034
0.101754
0.101754
0.115983
0.115983
0.106135
0.106135
0.114931
0.114931
0.119965
0.119965
0.115668
0.115668
0.123433
0.123433
0.117106
0.117106
0.116061
0.116061
0.11593
0.11593
0.267009
0.267009
0.109584
0.109584
0.114852
0.114852
0.121057
0.121057
0.115907
0.115907
0.127608
0.127608
0.116241
0.116241
0.115967
0.115967
0.0763239
0.0763239
0.119704
0.119704
0.118782
0.118782
0.096336
0.096336
0.115966
0.115966
0.115815
0.115815
0.113028
0.113028
0.12317
0.12317
0.100792
0.100792
0.114738
0.114738
0.115954
0.115954
0.118867
0.118867
0.115657
0.115657
0.124388
0.124388
0.11602
0.11602
0.116564
0.116564
0.114194
0.114194
0.0868688
0.0868688
0.0919668
0.0919668
0.107605
0.107605
0.121737
0.121737
0.123525
0.123525
0.111764