/*--------------------------------*- C++ -*----------------------------------*\
  =========                 |
  \\      /  F ield         | OpenFOAM: The Open Source CFD Toolbox
   \\    /   O peration     | Website:  https://openfoam.org
    \\  /    A nd           | Version:  8
     \\/     M anipulation  |
\*---------------------------------------------------------------------------*/
FoamFile
{
    version     2.0;
    format      ascii;
    class       volScalarField;
    location    "0.25";
    object      k;
}
// * * * * * * * * * * * * * * * * * * * * * * * * * * * * * * * * * * * * * //

dimensions      [0 2 -2 0 0 0 0];

internalField   nonuniform List<scalar> 
1924
(
0.0611457
0.0616442
0.0584327
0.0588789
0.0607146
0.0565447
0.0569596
0.0537327
0.0543719
0.0596968
0.0511793
0.0532171
0.0425325
0.0503424
0.0605192
0.0604993
0.0433642
0.0525447
0.0579417
0.0526747
0.0320884
0.0499065
0.0529967
0.0553693
0.0522421
0.0568192
0.0550078
0.0628992
0.0585665
0.0604423
0.0513333
0.0523807
0.058172
0.0479718
0.0624463
0.0558036
0.0487373
0.0595469
0.0582997
0.0484718
0.0511863
0.0360776
0.0540883
0.0524727
0.0605847
0.0531015
0.0573465
0.0631418
0.0282106
0.0278583
0.0581468
0.0369968
0.0495872
0.0569556
0.0423668
0.0626076
0.0564504
0.0623367
0.0620505
0.0597817
0.0558203
0.0603602
0.0553706
0.0571894
0.0553713
0.0635948
0.0600614
0.0556498
0.0551486
0.0573397
0.0322621
0.0603155
0.0568127
0.061669
0.0620117
0.0465004
0.0636182
0.0628793
0.0630912
0.0574047
0.0624887
0.0571907
0.0596816
0.0312033
0.0604749
0.0566921
0.0632403
0.0598839
0.0272575
0.0297981
0.0601581
0.0588354
0.0456082
0.0456787
0.0317986
0.0508583
0.0629992
0.0620945
0.0598739
0.0456421
0.0563931
0.0320298
0.0599137
0.059483
0.0458112
0.0634471
0.0549054
0.0470185
0.0595771
0.0458835
0.0624072
0.0544988
0.0608544
0.0607371
0.063287
0.0281064
0.0569137
0.0603594
0.0592141
0.0635774
0.0571541
0.03335
0.0313718
0.0280602
0.0600759
0.0478372
0.0463924
0.0630016
0.0484811
0.0423833
0.0622816
0.0550774
0.0401146
0.0609158
0.0355276
0.0464268
0.0580976
0.055678
0.0562926
0.0611036
0.0635315
0.0602741
0.0429941
0.0452431
0.0548625
0.0517743
0.0466696
0.040235
0.0594119
0.0595046
0.0570851
0.0336491
0.0393631
0.0542939
0.054653
0.0483587
0.0330431
0.0580967
0.0611499
0.0526536
0.0610857
0.0459109
0.053951
0.0345547
0.0556009
0.046497
0.0482396
0.0324035
0.0634989
0.0483264
0.0579872
0.052597
0.0633135
0.0597339
0.0629867
0.039756
0.0603773
0.0307279
0.0579223
0.0530215
0.0437286
0.0603528
0.0630596
0.0498107
0.0276504
0.0596397
0.0391165
0.0456861
0.0631265
0.061982
0.0437502
0.05155
0.0610745
0.0521621
0.0494925
0.0348987
0.0475369
0.0398585
0.042536
0.0395194
0.047546
0.0621077
0.0472665
0.050073
0.0592733
0.043437
0.0509953
0.0358813
0.0382316
0.0397686
0.0358787
0.0501783
0.0585073
0.0514178
0.0456678
0.0634499
0.0592201
0.0449448
0.0501032
0.062811
0.0474754
0.059391
0.047295
0.0583931
0.0495308
0.0491259
0.0600717
0.0631028
0.0508105
0.0399811
0.0412621
0.0600259
0.0420466
0.0418057
0.0525736
0.0273035
0.0598937
0.0491065
0.0481601
0.0361981
0.0601118
0.0415966
0.0603483
0.0362931
0.0517313
0.0331868
0.048877
0.0628664
0.063223
0.0632128
0.0595679
0.0372515
0.0535774
0.0498284
0.0630341
0.060437
0.0582483
0.0429362
0.0482842
0.0487826
0.0495897
0.048164
0.0597157
0.0634972
0.0547556
0.0613168
0.0399062
0.0630715
0.0448452
0.0431079
0.0430705
0.0582747
0.0535691
0.0438407
0.059902
0.0624052
0.0490304
0.0542871
0.050845
0.0405362
0.0477508
0.0377108
0.0601317
0.0541478
0.0565902
0.0622565
0.060044
0.0397997
0.0495211
0.0419045
0.048552
0.0581205
0.0570994
0.0610696
0.0270731
0.0565711
0.0604121
0.0378581
0.0628517
0.0609155
0.0404566
0.0503363
0.0610829
0.0590901
0.0495988
0.0464644
0.0449985
0.061347
0.0433902
0.0614031
0.0344517
0.0594873
0.0561066
0.0547654
0.0624456
0.0455929
0.0491891
0.0497403
0.048852
0.0510471
0.0599882
0.0435611
0.0505286
0.0587102
0.0515107
0.0627543
0.0431615
0.0447247
0.0615435
0.0593734
0.0408349
0.0598279
0.0559603
0.0506534
0.0619247
0.0580713
0.0597573
0.049388
0.0570182
0.0498689
0.0628953
0.0598744
0.0550221
0.0386
0.0608108
0.0601753
0.0451273
0.0598727
0.0592352
0.0487802
0.0570943
0.0504104
0.0452525
0.0612307
0.0359515
0.0629043
0.0295392
0.0519007
0.0456584
0.0453438
0.0592882
0.0609677
0.061351
0.0597517
0.0575374
0.0493455
0.0563459
0.0473193
0.0581864
0.0509653
0.0615812
0.0510361
0.0466176
0.0600742
0.0595591
0.0245767
0.0608662
0.0607042
0.0571129
0.0598495
0.0599434
0.0628477
0.0437463
0.0527147
0.042868
0.0617472
0.0615291
0.0597222
0.0592677
0.0489082
0.0469005
0.0580076
0.0457546
0.0596788
0.0525071
0.039542
0.0591938
0.0580113
0.0603301
0.0601773
0.0537428
0.0620011
0.0431103
0.0455326
0.0288444
0.0595864
0.0620424
0.05967
0.0464208
0.0588781
0.059703
0.0586099
0.0527827
0.0487356
0.0588223
0.0589385
0.0624036
0.060917
0.0577282
0.0616081
0.0610141
0.04755
0.0621946
0.0380347
0.0588563
0.0613171
0.062409
0.0543058
0.0582107
0.0596119
0.0595611
0.0625309
0.0596085
0.0593608
0.0552715
0.0596191
0.0614271
0.0473876
0.0500792
0.0590292
0.0432573
0.059563
0.0518989
0.0533081
0.0596404
0.0456234
0.060013
0.0614061
0.0473646
0.059534
0.0605223
0.0587638
0.0553771
0.059763
0.0595197
0.0506488
0.0617015
0.0605851
0.0594264
0.0598235
0.0625558
0.0590188
0.0504226
0.0594682
0.0439049
0.0595136
0.059487
0.0595285
0.0505415
0.062219
0.0593971
0.0592081
0.0587068
0.0618277
0.0500982
0.0626125
0.0529841
0.0557325
0.0596102
0.0599808
0.0600392
0.0561774
0.0593817
0.0594708
0.0592358
0.0594112
0.0594603
0.0598385
0.0594127
0.0619027
0.0482245
0.0594465
0.0593369
0.0596703
0.0608968
0.0620475
0.0596701
0.059386
0.0594736
0.0585023
0.0609928
0.0604824
0.0463515
0.0593836
0.0431328
0.0588371
0.0605908
0.0594472
0.0592477
0.0612832
0.0619419
0.0621578
0.0593671
0.0553124
0.0593496
0.0593338
0.0594057
0.053296
0.0532469
0.0598298
0.0592843
0.0604986
0.0621559
0.0613882
0.0576457
0.0561653
0.0593078
0.0581385
0.0594134
0.0598802
0.0592872
0.0568459
0.05933
0.0584913
0.0482927
0.0593047
0.0581805
0.049982
0.0505843
0.0593805
0.0593464
0.0584483
0.0586962
0.0615707
0.0616162
0.0592499
0.0536852
0.0557815
0.0594277
0.0612632
0.0592787
0.0592302
0.0599615
0.0592414
0.0592724
0.0586418
0.0584909
0.0585578
0.0575849
0.0519599
0.0593402
0.0592138
0.0466544
0.0592156
0.046546
0.0560113
0.0622095
0.0593978
0.0565464
0.059321
0.0617093
0.0592517
0.0592685
0.0592147
0.0591156
0.0591865
0.0590009
0.0443911
0.0608314
0.059203
0.0592886
0.0595616
0.054071
0.0592015
0.0557748
0.0588501
0.0605587
0.0590931
0.0617071
0.0595787
0.0592376
0.0591864
0.0411278
0.0569849
0.0588138
0.0609243
0.0591745
0.0631089
0.0592896
0.059199
0.0447541
0.0604712
0.0601356
0.0522597
0.0591974
0.058987
0.0579618
0.0615985
0.0539427
0.0587711
0.0592001
0.0601882
0.0590822
0.0620235
0.0592217
0.0594008
0.0584404
0.0488481
0.0506839
0.0562777
0.0611496
0.0617369
0.057756
0.0591511
0.0587754
0.0589497
0.0593006
0.0594455
0.0591383
0.0594671
0.0596794
0.0590859
0.0630171
0.0591459
0.0591317
0.0476899
0.059095
0.0548334
0.0590948
0.0612247
0.0590769
0.059082
0.0591215
0.0590705
0.0587172
0.0601996
0.0590851
0.0597822
0.0590748
0.0487046
0.0589467
0.0590728
0.059375
0.0593642
0.0593696
0.0590701
0.058934
0.061452
0.0590489
0.0594891
0.0577076
0.0593234
0.0580241
0.061205
0.0590615
0.0511292
0.0590048
0.0595639
0.058924
0.0590439
0.0590093
0.061119
0.0539054
0.0616629
0.0601152
0.0611983
0.0570877
0.059771
0.0586865
0.0595805
0.0604935
0.0604119
0.0592468
0.059146
0.0589566
0.0597572
0.0590467
0.0522062
0.060695
0.0594076
0.0597592
0.0602385
0.0575934
0.058921
0.0588314
0.0601718
0.0595896
0.0592222
0.058934
0.0588906
0.0605144
0.0588427
0.0589431
0.0481078
0.0561116
0.0589344
0.0589581
0.0589119
0.0607511
0.0588725
0.0588162
0.0589361
0.0589513
0.0529686
0.0588731
0.0596366
0.0589563
0.0588036
0.0600945
0.0527568
0.0580752
0.0593518
0.0610262
0.0595618
0.0596647
0.0209429
0.0249167
0.0489558
0.0520875
0.0606974
0.0589508
0.0595363
0.0556407
0.0588225
0.0591319
0.0588392
0.0590364
0.0589509
0.0592251
0.0587264
0.0569721
0.0589468
0.0603905
0.0248883
0.0565978
0.0389325
0.0587967
0.0595667
0.0587677
0.0606418
0.05878
0.0586345
0.0578326
0.0514806
0.055037
0.0597568
0.0466031
0.0513384
0.0536164
0.0592604
0.0533653
0.05894
0.059572
0.059826
0.0587219
0.0594912
0.0587593
0.0587097
0.0593202
0.0587969
0.0594407
0.0587931
0.057642
0.0588467
0.049032
0.0602855
0.0586955
0.0587359
0.0593696
0.0588338
0.0586654
0.0590638
0.0600402
0.0463301
0.0550098
0.0557528
0.0597367
0.0588198
0.0600437
0.0577296
0.059444
0.0584104
0.0601135
0.0588437
0.0586216
0.0596232
0.0603234
0.0530193
0.0588141
0.0584377
0.0537606
0.0522454
0.0586815
0.0455575
0.0585275
0.0598593
0.0502442
0.0593498
0.0588475
0.0586118
0.0527769
0.0602279
0.0577317
0.0291556
0.0584318
0.0593601
0.0591095
0.0584248
0.0586333
0.0587428
0.0582602
0.0600632
0.0598409
0.0586858
0.0589184
0.0601166
0.0585255
0.0590007
0.0588434
0.0593298
0.0595126
0.0576498
0.0583975
0.0586606
0.0585352
0.0586448
0.0583093
0.0590132
0.0591337
0.0247648
0.0566674
0.0308249
0.0586921
0.0585944
0.0318998
0.0581567
0.0586944
0.0584404
0.0591741
0.058211
0.059542
0.0588319
0.0590124
0.0581026
0.0594267
0.0587392
0.0580218
0.0583425
0.0556919
0.0525449
0.0589764
0.0597739
0.0587388
0.0481949
0.0581633
0.0587494
0.0565714
0.0585533
0.0590546
0.0591617
0.058803
0.0582141
0.0579544
0.060282
0.058275
0.0448197
0.0572926
0.0585089
0.0245906
0.0587185
0.0449184
0.0581846
0.0590938
0.05441
0.0585357
0.0584554
0.0587476
0.0554168
0.0588185
0.0589013
0.0582006
0.056495
0.0441678
0.0594996
0.0599273
0.0599507
0.0598277
0.0592389
0.0579332
0.0595563
0.0590064
0.0523641
0.0581304
0.0484722
0.0585161
0.0583626
0.0597861
0.0580013
0.0585755
0.0597284
0.0585636
0.0433577
0.0596666
0.0356895
0.0508872
0.0587437
0.0582877
0.0584811
0.0580597
0.0530891
0.0496189
0.0594823
0.0581227
0.0544748
0.0585262
0.0589614
0.0560981
0.0601375
0.059974
0.0586058
0.0579785
0.0591572
0.0583825
0.0572873
0.0586524
0.0512911
0.0588922
0.0573494
0.0586086
0.0587328
0.0530293
0.0436168
0.0580219
0.0560983
0.0319463
0.0586366
0.0578918
0.0586525
0.0586185
0.0592934
0.0570084
0.0582919
0.0362724
0.057375
0.0588227
0.0418671
0.0577473
0.021352
0.0586603
0.0589553
0.0568184
0.0552024
0.0573669
0.0567931
0.0551471
0.0586548
0.0595588
0.058042
0.0584453
0.0560862
0.0522822
0.0573301
0.0502788
0.0584147
0.0595044
0.0426985
0.0584643
0.0584914
0.0587551
0.0408157
0.0592137
0.0585017
0.0568755
0.0572704
0.058316
0.0586805
0.0578026
0.0491536
0.04403
0.0567883
0.0516354
0.0586459
0.0546406
0.0571936
0.0568214
0.0510465
0.0566831
0.058756
0.0587668
0.0585825
0.0582266
0.0575348
0.0564192
0.0588374
0.0568145
0.0528569
0.0593265
0.0581896
0.0595015
0.0501794
0.0571051
0.0578434
0.0590047
0.0585575
0.0593146
0.058105
0.0585593
0.0585309
0.0567717
0.0579661
0.0596171
0.0593035
0.0596308
0.0246959
0.0507913
0.0507637
0.0585659
0.0566988
0.0586019
0.0619429
0.0585091
0.0519669
0.0563061
0.057408
0.0586999
0.0477995
0.0503437
0.0566029
0.0574534
0.0570882
0.0577205
0.0565963
0.059255
0.0596838
0.0586295
0.0588906
0.0582525
0.05397
0.0583816
0.0583533
0.0585585
0.0564914
0.0595038
0.0581515
0.0570087
0.0627058
0.0532054
0.0581667
0.0594551
0.0585536
0.0546492
0.0584269
0.0560349
0.0547186
0.0418638
0.0581633
0.049573
0.059331
0.0578959
0.0531009
0.0545752
0.0590427
0.0555705
0.0563709
0.0547474
0.0584369
0.0585209
0.0315262
0.0585171
0.0547327
0.0576456
0.0360862
0.0584784
0.0546782
0.0503564
0.0560248
0.0545586
0.0486522
0.0584684
0.0589312
0.0583761
0.0545914
0.0584648
0.0460853
0.0296975
0.0569038
0.0584721
0.0592669
0.0627644
0.0584744
0.0569984
0.0533701
0.0544801
0.0540651
0.0409043
0.0581932
0.0383328
0.0538827
0.0582964
0.058446
0.0581092
0.0572862
0.0583981
0.0217371
0.0248814
0.0541208
0.0573225
0.0562454
0.059232
0.0533888
0.0578286
0.0583233
0.0555474
0.0585477
0.0590506
0.0579083
0.0409341
0.0584389
0.0533557
0.0333268
0.0475914
0.0582663
0.0583382
0.0590611
0.0532733
0.053311
0.0575774
0.0570936
0.0531741
0.0497786
0.0531503
0.0583031
0.0269139
0.0471016
0.0534993
0.0543519
0.0330806
0.0568086
0.0529977
0.0273759
0.026749
0.0583934
0.0517633
0.0589561
0.0581957
0.0592427
0.0593485
0.0574389
0.0582714
0.057114
0.0583921
0.0583666
0.0277985
0.0327912
0.0561377
0.0229464
0.0539444
0.0583873
0.0461974
0.0528265
0.0593379
0.0531802
0.0525464
0.054948
0.0579101
0.0582379
0.0583574
0.0427586
0.0623101
0.0582097
0.0581546
0.0521578
0.0585628
0.0526865
0.0583016
0.0484539
0.0310323
0.054207
0.0581374
0.057762
0.0335864
0.0485462
0.0580542
0.0406498
0.0251074
0.0573827
0.0493307
0.0575125
0.048583
0.0528547
0.0580906
0.0590489
0.0583124
0.0483334
0.0581999
0.0485631
0.0567212
0.0518794
0.0451541
0.057342
0.0484933
0.0591815
0.0561996
0.0583215
0.037363
0.0539404
0.0573782
0.0526445
0.057854
0.0207712
0.0189229
0.0582408
0.0560408
0.0483829
0.0570216
0.0589482
0.0563532
0.0515488
0.0384866
0.0340087
0.057067
0.0540609
0.0582672
0.0588255
0.0567726
0.0566846
0.056781
0.0483374
0.0580206
0.0452564
0.0592347
0.0574223
0.0581256
0.0491422
0.0463806
0.0585551
0.0482413
0.0582761
0.0453066
0.0326977
0.0583012
0.0452971
0.0568419
0.045224
0.0573597
0.0271884
0.053189
0.0473902
0.0394934
0.058232
0.0573983
0.0450966
0.0270566
0.0485476
0.0524693
0.0515417
0.0472026
0.0449274
0.0452053
0.0589798
0.0576991
0.0512022
0.0530819
0.0466998
0.0436556
0.056629
0.0583207
0.0574497
0.047548
0.0539678
0.0474012
0.0573123
0.054496
0.0305666
0.0568469
0.0332357
0.0579995
0.0573526
0.05805
0.0559559
0.0547423
0.0447284
0.0568091
0.0489271
0.0579466
0.0505129
0.0545035
0.0567605
0.0581968
0.0480754
0.0295865
0.0580816
0.0539341
0.0480168
0.0589939
0.0547108
0.0423632
0.0567621
0.038345
0.0453369
0.0544287
0.0633603
0.0344595
0.051971
0.0523273
0.0571276
0.0630468
0.0460131
0.053388
0.0578706
0.028392
0.0531239
0.0546999
0.0533479
0.0445094
0.0581893
0.0253204
0.0530235
0.0577977
0.0436336
0.0572569
0.0588963
0.0441557
0.0581491
0.0581788
0.0544626
0.053789
0.0546675
0.0585096
0.0259599
0.0284024
0.0549712
0.0444806
0.0485796
0.0260938
0.0579731
0.0533195
0.03681
0.0567061
0.0478686
0.0530683
0.0590629
0.037562
0.0282037
0.048313
0.0543367
0.0330342
0.0237892
0.0212406
0.0482373
0.0504719
0.0450879
0.0455285
0.0565436
0.0573006
0.0573878
0.0546854
0.0567182
0.0577933
0.0260165
0.0580708
0.0212876
0.0238003
0.0582762
0.0529834
0.0461685
0.0285484
0.0576359
0.0429646
0.0558731
0.0284168
0.0448658
0.0287196
0.0571951
0.0301637
0.0503858
0.041132
0.0290186
0.0588857
0.0345881
0.053296
0.053799
0.0261303
0.029296
0.0483559
0.02955
0.051696
0.041881
0.029785
0.0442552
0.0491224
0.0451126
0.045796
0.0370376
0.028157
0.029993
0.0580109
0.0515589
0.0566425
0.0579342
0.0481605
0.0522123
0.0477551
0.0571288
0.0531422
0.0578891
0.0284412
0.047969
0.0389477
0.0546593
0.0543928
0.0580469
0.0520659
0.0377467
0.0250926
0.0453452
0.0301632
0.0590409
0.0585665
0.057712
0.0476891
0.0532609
0.0420132
0.048398
0.0565731
0.0272322
0.0525574
0.0542253
0.0423864
0.0277864
0.0430317
0.0451245
0.047577
0.0528867
0.0570582
0.0277507
0.0578636
0.0564607
0.0274956
0.0546218
0.0587869
0.0292687
0.0450697
0.0570772
0.0566185
0.0302762
0.0447437
0.0575584
0.0557937
0.0273017
0.0577707
0.0440524
0.0449488
0.0564993
0.0233903
0.0578252
0.0398643
0.0573129
0.0584064
0.0576098
0.0445764
0.0462935
0.0572022
0.0416617
0.0581723
0.0402531
0.0532135
0.0309277
0.0313474
0.0288093
0.0261202
0.0536759
0.0330904
0.0575279
0.0484209
0.041479
0.0297795
0.0240965
0.0478728
0.0569781
0.0576151
0.0586775
0.0453508
0.0531243
0.0546645
0.0271277
0.0545746
0.0442173
0.0568622
0.0574071
0.0451099
0.0574254
0.0521031
0.0465795
0.0446439
0.0301985
0.0564191
0.0571939
0.0465336
0.0563698
0.0389659
0.0223869
0.0474106
0.0252604
0.0222776
0.0545188
0.0220716
0.0563169
0.0540667
0.021733
0.0531559
0.0289858
0.0212685
0.0566215
0.0476914
0.0269119
0.0207017
0.0200672
0.055703
0.0557575
0.0561342
0.0527286
0.0474943
0.0569743
0.0444349
0.0564062
0.0366718
0.0344069
0.0194111
0.0535638
0.0484286
0.0544502
0.0279035
0.0568969
0.0308949
0.0291135
0.0562093
0.0543459
0.0283292
0.0262716
0.0485072
0.0369723
0.018781
0.0276497
0.0530896
0.0230846
0.0442025
0.0560073
0.0541252
0.0532129
0.0555708
0.0225476
0.0221115
0.0450793
0.0530142
0.0217984
0.0564404
0.0298408
0.0556945
0.043905
0.0285523
0.0184598
0.0216015
0.029128
0.0481871
0.0427119
0.0570256
0.0527483
0.0529173
0.0585947
0.044907
0.0534539
0.0582269
0.0557841
0.021387
0.0579304
0.0481037
0.0520018
0.0229468
0.0567786
0.0182313
0.0579887
0.0563734
0.022213
0.0243147
0.0544866
0.0552708
0.0535585
0.0483019
0.0217522
0.0483681
0.0257218
0.0292395
0.0245189
0.0523513
0.0567464
0.0538105
0.0532892
0.0571629
0.0481417
0.0274885
0.0518953
0.0205469
0.0199119
0.0405423
0.0208384
0.0484222
0.0274885
0.0545524
0.0581587
0.0473271
0.0524768
0.0484027
0.0472091
0.0351594
0.0576932
0.0181057
0.0200141
0.0544212
0.0222954
0.021961
0.0563237
0.0447154
0.044843
0.0240731
0.0528878
0.0215123
0.0292624
0.056154
0.058187
0.0228439
0.0285687
0.0517524
0.0224702
0.0586723
0.0477025
0.0209037
0.0520967
0.0442424
0.0513256
0.0259392
0.047185
0.0571946
0.0153466
0.0181226
0.0557254
0.0339486
0.0450369
0.0556384
0.0526975
0.056008
0.0444279
0.0449215
0.0222033
0.0536418
0.0534237
0.0514673
0.0561465
0.0517601
0.0448933
0.0281688
0.0222877
0.0465227
0.057356
0.0477552
0.0417335
0.0385854
0.0297099
0.021231
0.0528685
0.046903
0.0297749
0.0550774
0.0294145
0.0183408
0.0436818
0.0488038
0.0506995
0.0470597
0.0217963
0.0224519
0.043769
0.0291769
0.0296166
0.0297581
0.0436162
0.0431999
0.0486265
0.0520553
0.046906
0.0229301
0.0190134
0.0520889
0.0417821
0.0511991
0.0273741
0.0221305
0.0515274
0.0542822
0.0449838
0.0516013
0.0435387
0.0462844
0.0539585
0.0294856
0.0225737
0.0465722
0.0243466
0.0436504
0.0195166
0.0439964
0.0198771
0.0293906
0.0209206
0.050685
0.0205038
0.0507349
0.0293041
0.0456527
0.0439575
0.0191431
0.0284679
0.0432026
0.0288661
0.0287304
0.0184537
0.0464517
0.0204868
0.0458213
0.018697
0.0372848
0.0495325
0.0416239
0.0221926
0.0218692
0.0272452
0.0270772
0.0295094
0.0286838
0.0202354
0.0179957
0.0428093
0.0449562
0.0478975
0.0434004
0.0211684
0.0164843
0.0252401
0.0370867
0.0436682
0.0413537
0.0431703
0.0435281
0.0473568
0.042596
0.0190799
0.0264439
0.0410413
0.0194307
0.025555
0.0183046
0.0241966
0.0364796
0.0391233
0.0152125
0.0156435
0.0120898
0.0112317
0.0179592
0.0156874
0.0182288
0.0286089
0.0205862
0.0286775
0.0183706
0.018486
0.0283719
0.0179833
0.0184556
0.0290944
0.0265498
0.0206209
0.0220278
0.019729
0.0261607
0.0212181
0.0268487
0.0155492
0.0115389
0.0116039
0.024655
0.0162504
0.0174913
0.027524
0.0216157
0.0357201
0.0632188
0.0409246
0.0429151
0.0420782
0.0280847
0.0179998
0.0549921
0.0568475
0.0517065
0.0117571
0.0366551
0.0568691
0.0466937
0.036146
0.0249229
0.0258096
0.0635711
0.0539319
0.0320075
0.0128443
0.0335701
0.0585417
0.029464
0.0563101
0.0512476
0.0370755
0.0511705
0.0393082
0.0564321
0.0159223
0.0156208
0.0346557
0.0275361
0.0387794
0.0263171
0.0321881
0.0295491
0.0553176
0.0373251
0.0522236
0.0322921
0.024765
0.0279565
0.0398817
0.0434295
0.0589748
0.0320712
0.0401314
0.0421129
0.0542564
0.0558629
0.0408082
0.0479225
0.0635577
0.0401319
0.0293249
0.0255405
0.0311175
0.0373671
0.0276588
0.0381804
0.031628
0.0270379
0.0292298
0.0169861
0.0159463
0.0532874
0.0441082
0.034916
0.0634474
0.0265287
0.0317665
0.0429742
0.036468
0.0386353
0.0360899
0.0483029
0.0410788
0.0396226
0.0552297
0.0230106
0.0331195
0.0424215
0.0402915
0.0406736
0.0619328
0.0412203
0.048682
0.0190774
0.0485397
0.0607526
0.0449965
0.0336263
0.028007
0.0564382
0.0512563
0.0586351
0.0291554
0.0344266
0.0199428
0.0514331
0.0618079
0.0323174
0.061721
0.0534022
0.025344
0.0543034
0.061152
0.0466828
0.0574665
0.0501348
0.0315257
0.0345841
0.0240743
0.0566611
0.0249771
0.0255758
0.0593929
)
;

boundaryField
{
    patch0
    {
        type            kqRWallFunction;
        value           nonuniform List<scalar> 
4010
(
0.0611457
0.0611457
0.0616442
0.0616442
0.0584327
0.0584327
0.0588789
0.0588789
0.0607146
0.0607146
0.0565447
0.0565447
0.0569596
0.0569596
0.0537327
0.0537327
0.0543719
0.0543719
0.0596968
0.0596968
0.0511793
0.0511793
0.0532171
0.0532171
0.0425325
0.0425325
0.0503424
0.0503424
0.0605192
0.0605192
0.0604993
0.0604993
0.0433642
0.0433642
0.0525447
0.0525447
0.0579417
0.0579417
0.0526747
0.0526747
0.0320884
0.0320884
0.0499065
0.0499065
0.0529967
0.0529967
0.0553693
0.0553693
0.0522421
0.0522421
0.0568192
0.0568192
0.0550078
0.0550078
0.0628992
0.0628992
0.0585665
0.0585665
0.0604423
0.0604423
0.0513333
0.0513333
0.0523807
0.0523807
0.058172
0.058172
0.0479718
0.0479718
0.0624463
0.0624463
0.0558036
0.0558036
0.0487373
0.0487373
0.0595469
0.0595469
0.0582997
0.0582997
0.0484718
0.0484718
0.0511863
0.0511863
0.0360776
0.0360776
0.0540883
0.0540883
0.0524727
0.0524727
0.0605847
0.0605847
0.0531015
0.0531015
0.0573465
0.0573465
0.0631418
0.0631418
0.0282106
0.0282106
0.0278583
0.0278583
0.0581468
0.0581468
0.0369968
0.0369968
0.0495872
0.0495872
0.0569556
0.0569556
0.0423668
0.0423668
0.0626076
0.0626076
0.0564504
0.0564504
0.0623367
0.0623367
0.0620505
0.0620505
0.0597817
0.0597817
0.0558203
0.0558203
0.0603602
0.0603602
0.0553706
0.0553706
0.0571894
0.0571894
0.0553713
0.0553713
0.0635948
0.0635948
0.0600614
0.0600614
0.0556498
0.0556498
0.0551486
0.0551486
0.0573397
0.0573397
0.0322621
0.0322621
0.0603155
0.0603155
0.0568127
0.0568127
0.061669
0.061669
0.0620117
0.0620117
0.0465004
0.0465004
0.0636182
0.0636182
0.0628793
0.0628793
0.0630912
0.0630912
0.0574047
0.0574047
0.0624887
0.0624887
0.0571907
0.0571907
0.0596816
0.0596816
0.0312033
0.0312033
0.0604749
0.0604749
0.0566921
0.0566921
0.0632403
0.0632403
0.0598839
0.0598839
0.0272575
0.0272575
0.0297981
0.0297981
0.0601581
0.0601581
0.0588354
0.0588354
0.0456082
0.0456082
0.0456787
0.0456787
0.0317986
0.0317986
0.0508583
0.0508583
0.0629992
0.0629992
0.0620945
0.0620945
0.0598739
0.0598739
0.0456421
0.0456421
0.0563931
0.0563931
0.0320298
0.0320298
0.0599137
0.0599137
0.059483
0.059483
0.0458112
0.0458112
0.0634471
0.0634471
0.0549054
0.0549054
0.0470185
0.0470185
0.0595771
0.0595771
0.0458835
0.0458835
0.0624072
0.0624072
0.0544988
0.0544988
0.0608544
0.0608544
0.0607371
0.0607371
0.063287
0.063287
0.0281064
0.0281064
0.0569137
0.0569137
0.0603594
0.0603594
0.0592141
0.0592141
0.0635774
0.0635774
0.0571541
0.0571541
0.03335
0.03335
0.0313718
0.0313718
0.0280602
0.0280602
0.0600759
0.0600759
0.0478372
0.0478372
0.0463924
0.0463924
0.0630016
0.0630016
0.0484811
0.0484811
0.0423833
0.0423833
0.0622816
0.0622816
0.0550774
0.0550774
0.0401146
0.0401146
0.0609158
0.0609158
0.0355276
0.0355276
0.0464268
0.0464268
0.0580976
0.0580976
0.055678
0.055678
0.0562926
0.0562926
0.0611036
0.0611036
0.0635315
0.0635315
0.0602741
0.0602741
0.0429941
0.0429941
0.0429941
0.0452431
0.0452431
0.0452431
0.0548625
0.0548625
0.0517743
0.0517743
0.0466696
0.0466696
0.040235
0.040235
0.0594119
0.0594119
0.0595046
0.0595046
0.0570851
0.0570851
0.0336491
0.0336491
0.0336491
0.0393631
0.0393631
0.0542939
0.0542939
0.054653
0.054653
0.0483587
0.0483587
0.0330431
0.0330431
0.0580967
0.0580967
0.0611499
0.0611499
0.0526536
0.0526536
0.0610857
0.0610857
0.0459109
0.0459109
0.053951
0.053951
0.0345547
0.0345547
0.0556009
0.0556009
0.046497
0.046497
0.0482396
0.0482396
0.0324035
0.0324035
0.0634989
0.0634989
0.0483264
0.0483264
0.0579872
0.0579872
0.052597
0.052597
0.0633135
0.0633135
0.0597339
0.0597339
0.0629867
0.0629867
0.039756
0.039756
0.0603773
0.0603773
0.0307279
0.0307279
0.0579223
0.0579223
0.0530215
0.0530215
0.0437286
0.0437286
0.0603528
0.0603528
0.0630596
0.0630596
0.0498107
0.0498107
0.0276504
0.0276504
0.0596397
0.0596397
0.0391165
0.0391165
0.0456861
0.0456861
0.0631265
0.0631265
0.061982
0.061982
0.0437502
0.0437502
0.05155
0.05155
0.0610745
0.0610745
0.0521621
0.0521621
0.0494925
0.0494925
0.0348987
0.0348987
0.0348987
0.0475369
0.0475369
0.0398585
0.0398585
0.042536
0.042536
0.0395194
0.0395194
0.047546
0.047546
0.0621077
0.0621077
0.0472665
0.0472665
0.050073
0.050073
0.0592733
0.0592733
0.043437
0.043437
0.0509953
0.0509953
0.0358813
0.0358813
0.0382316
0.0382316
0.0397686
0.0397686
0.0397686
0.0358787
0.0358787
0.0501783
0.0501783
0.0585073
0.0585073
0.0514178
0.0514178
0.0456678
0.0456678
0.0634499
0.0634499
0.0592201
0.0592201
0.0449448
0.0449448
0.0501032
0.0501032
0.062811
0.062811
0.0474754
0.0474754
0.059391
0.059391
0.047295
0.047295
0.0583931
0.0583931
0.0495308
0.0495308
0.0491259
0.0491259
0.0600717
0.0600717
0.0631028
0.0631028
0.0508105
0.0508105
0.0399811
0.0399811
0.0412621
0.0412621
0.0600259
0.0600259
0.0420466
0.0420466
0.0418057
0.0418057
0.0525736
0.0525736
0.0273035
0.0273035
0.0273035
0.0598937
0.0598937
0.0491065
0.0491065
0.0481601
0.0481601
0.0361981
0.0361981
0.0361981
0.0601118
0.0601118
0.0415966
0.0415966
0.0603483
0.0603483
0.0362931
0.0362931
0.0517313
0.0517313
0.0331868
0.0331868
0.048877
0.048877
0.0628664
0.0628664
0.063223
0.063223
0.0632128
0.0632128
0.0595679
0.0595679
0.0372515
0.0372515
0.0535774
0.0535774
0.0498284
0.0498284
0.0630341
0.0630341
0.060437
0.060437
0.0582483
0.0582483
0.0429362
0.0429362
0.0482842
0.0482842
0.0487826
0.0487826
0.0495897
0.0495897
0.048164
0.048164
0.0597157
0.0597157
0.0634972
0.0634972
0.0547556
0.0547556
0.0613168
0.0613168
0.0399062
0.0399062
0.0630715
0.0630715
0.0448452
0.0448452
0.0431079
0.0431079
0.0430705
0.0430705
0.0582747
0.0582747
0.0535691
0.0535691
0.0438407
0.0438407
0.059902
0.059902
0.0624052
0.0624052
0.0490304
0.0490304
0.0542871
0.0542871
0.050845
0.050845
0.0405362
0.0405362
0.0477508
0.0477508
0.0377108
0.0377108
0.0377108
0.0601317
0.0601317
0.0541478
0.0541478
0.0565902
0.0565902
0.0622565
0.0622565
0.060044
0.060044
0.0397997
0.0397997
0.0495211
0.0495211
0.0419045
0.0419045
0.048552
0.048552
0.0581205
0.0581205
0.0570994
0.0570994
0.0610696
0.0610696
0.0270731
0.0270731
0.0565711
0.0565711
0.0604121
0.0604121
0.0378581
0.0378581
0.0628517
0.0628517
0.0609155
0.0609155
0.0404566
0.0404566
0.0404566
0.0503363
0.0503363
0.0610829
0.0610829
0.0590901
0.0590901
0.0495988
0.0495988
0.0464644
0.0464644
0.0449985
0.0449985
0.061347
0.061347
0.0433902
0.0433902
0.0614031
0.0614031
0.0344517
0.0344517
0.0594873
0.0594873
0.0561066
0.0561066
0.0547654
0.0547654
0.0624456
0.0624456
0.0455929
0.0455929
0.0491891
0.0491891
0.0497403
0.0497403
0.048852
0.048852
0.0510471
0.0510471
0.0599882
0.0599882
0.0435611
0.0435611
0.0505286
0.0505286
0.0587102
0.0587102
0.0515107
0.0515107
0.0627543
0.0627543
0.0431615
0.0431615
0.0447247
0.0447247
0.0615435
0.0615435
0.0593734
0.0593734
0.0408349
0.0408349
0.0598279
0.0598279
0.0559603
0.0559603
0.0506534
0.0506534
0.0619247
0.0619247
0.0580713
0.0580713
0.0597573
0.0597573
0.049388
0.049388
0.0570182
0.0570182
0.0498689
0.0498689
0.0628953
0.0628953
0.0598744
0.0598744
0.0550221
0.0550221
0.0386
0.0386
0.0608108
0.0608108
0.0601753
0.0601753
0.0451273
0.0451273
0.0598727
0.0598727
0.0592352
0.0592352
0.0487802
0.0487802
0.0570943
0.0570943
0.0504104
0.0504104
0.0452525
0.0452525
0.0612307
0.0612307
0.0359515
0.0359515
0.0629043
0.0629043
0.0295392
0.0295392
0.0519007
0.0519007
0.0456584
0.0456584
0.0453438
0.0453438
0.0592882
0.0592882
0.0609677
0.0609677
0.061351
0.061351
0.0597517
0.0597517
0.0575374
0.0575374
0.0493455
0.0493455
0.0563459
0.0563459
0.0473193
0.0473193
0.0581864
0.0581864
0.0509653
0.0509653
0.0615812
0.0615812
0.0510361
0.0510361
0.0466176
0.0466176
0.0600742
0.0600742
0.0595591
0.0595591
0.0245767
0.0245767
0.0608662
0.0608662
0.0607042
0.0607042
0.0571129
0.0571129
0.0598495
0.0598495
0.0599434
0.0599434
0.0628477
0.0628477
0.0437463
0.0437463
0.0527147
0.0527147
0.042868
0.042868
0.0617472
0.0617472
0.0615291
0.0615291
0.0597222
0.0597222
0.0592677
0.0592677
0.0489082
0.0489082
0.0469005
0.0469005
0.0580076
0.0580076
0.0457546
0.0457546
0.0596788
0.0596788
0.0525071
0.0525071
0.039542
0.039542
0.039542
0.0591938
0.0591938
0.0580113
0.0580113
0.0603301
0.0603301
0.0601773
0.0601773
0.0537428
0.0537428
0.0620011
0.0620011
0.0431103
0.0431103
0.0455326
0.0455326
0.0288444
0.0288444
0.0288444
0.0595864
0.0595864
0.0620424
0.0620424
0.05967
0.05967
0.0464208
0.0464208
0.0588781
0.0588781
0.059703
0.059703
0.0586099
0.0586099
0.0527827
0.0527827
0.0487356
0.0487356
0.0588223
0.0588223
0.0589385
0.0589385
0.0624036
0.0624036
0.060917
0.060917
0.0577282
0.0577282
0.0616081
0.0616081
0.0610141
0.0610141
0.04755
0.04755
0.0621946
0.0621946
0.0380347
0.0380347
0.0588563
0.0588563
0.0613171
0.0613171
0.062409
0.062409
0.0543058
0.0543058
0.0582107
0.0582107
0.0596119
0.0596119
0.0595611
0.0595611
0.0625309
0.0625309
0.0596085
0.0596085
0.0593608
0.0593608
0.0552715
0.0552715
0.0596191
0.0596191
0.0614271
0.0614271
0.0473876
0.0473876
0.0500792
0.0500792
0.0590292
0.0590292
0.0432573
0.0432573
0.059563
0.059563
0.0518989
0.0518989
0.0533081
0.0533081
0.0596404
0.0596404
0.0456234
0.0456234
0.0456234
0.060013
0.060013
0.0614061
0.0614061
0.0473646
0.0473646
0.059534
0.059534
0.0605223
0.0605223
0.0587638
0.0587638
0.0553771
0.0553771
0.059763
0.059763
0.0595197
0.0595197
0.0506488
0.0506488
0.0617015
0.0617015
0.0605851
0.0605851
0.0594264
0.0594264
0.0598235
0.0598235
0.0625558
0.0625558
0.0590188
0.0590188
0.0504226
0.0504226
0.0594682
0.0594682
0.0439049
0.0439049
0.0595136
0.0595136
0.059487
0.059487
0.0595285
0.0595285
0.0505415
0.0505415
0.062219
0.062219
0.0593971
0.0593971
0.0592081
0.0592081
0.0587068
0.0587068
0.0618277
0.0618277
0.0500982
0.0500982
0.0626125
0.0626125
0.0529841
0.0529841
0.0557325
0.0557325
0.0596102
0.0596102
0.0599808
0.0599808
0.0600392
0.0600392
0.0561774
0.0561774
0.0593817
0.0593817
0.0594708
0.0594708
0.0592358
0.0592358
0.0594112
0.0594112
0.0594603
0.0594603
0.0598385
0.0598385
0.0594127
0.0594127
0.0619027
0.0619027
0.0482245
0.0482245
0.0594465
0.0594465
0.0593369
0.0593369
0.0596703
0.0596703
0.0608968
0.0608968
0.0620475
0.0620475
0.0596701
0.0596701
0.059386
0.059386
0.0594736
0.0594736
0.0585023
0.0585023
0.0609928
0.0609928
0.0604824
0.0604824
0.0463515
0.0463515
0.0593836
0.0593836
0.0431328
0.0431328
0.0588371
0.0588371