/*--------------------------------*- C++ -*----------------------------------*\
  =========                 |
  \\      /  F ield         | OpenFOAM: The Open Source CFD Toolbox
   \\    /   O peration     | Website:  https://openfoam.org
    \\  /    A nd           | Version:  8
     \\/     M anipulation  |
\*---------------------------------------------------------------------------*/
FoamFile
{
    version     2.0;
    format      ascii;
    class       volScalarField;
    location    "0.25";
    object      nut;
}
// * * * * * * * * * * * * * * * * * * * * * * * * * * * * * * * * * * * * * //

dimensions      [0 2 -1 0 0 0 0];

internalField   nonuniform List<scalar> 
1924
(
0.00276619
0.00277861
0.00271745
0.00272786
0.00276175
0.00267211
0.00268023
0.00260359
0.00261396
0.00274855
0.00253524
0.00257392
0.00229922
0.00250348
0.00274781
0.00274915
0.00232284
0.00254595
0.00268527
0.00254893
0.00199927
0.00248902
0.00257433
0.00260796
0.00253411
0.00263993
0.00259174
0.00280631
0.00271584
0.00274911
0.00253416
0.00253109
0.00269904
0.00244647
0.00279934
0.00264023
0.0024439
0.00274105
0.00269967
0.00246072
0.00249442
0.00211891
0.00256516
0.00256432
0.00275165
0.00257782
0.00267613
0.00281121
0.00187457
0.00186347
0.0026951
0.00214622
0.00248686
0.00266621
0.00229692
0.0028039
0.00265226
0.00279263
0.00278623
0.00273356
0.00264386
0.00274497
0.00263386
0.00267142
0.00262833
0.00282138
0.00273993
0.00263658
0.00263462
0.00267861
0.00200395
0.00274552
0.00266296
0.00277791
0.00278594
0.0024052
0.00282182
0.00280433
0.00281013
0.00268152
0.00279457
0.0026512
0.00273032
0.00197263
0.00275021
0.00266245
0.00281387
0.00272764
0.00184284
0.00192473
0.00274196
0.00270026
0.00239154
0.00239542
0.00199251
0.00251794
0.00280833
0.00278474
0.00273499
0.00238585
0.00268142
0.00199904
0.00273486
0.00272068
0.00240109
0.00281624
0.00264224
0.00241146
0.00272889
0.00240312
0.00279355
0.00262254
0.00276715
0.00275516
0.00281436
0.00187098
0.00269035
0.00274679
0.0027178
0.00282047
0.00266652
0.000778879
0.00197616
0.00186594
0.00274024
0.00244302
0.00240047
0.0028058
0.00247879
0.000811273
0.0027904
0.00265166
0.000258276
0.00275906
0.00210442
0.00242152
0.00271498
0.00265848
0.00262833
0.00277348
0.00282084
0.00274448
0.000211225
0.000216097
0.00264914
0.00253985
0.00240107
0.0022585
0.00272494
0.00272633
0.00267027
0.000391168
0.00223066
0.00263525
0.00264314
0.00245219
0.00077532
0.00271358
0.00276441
0.000297475
0.00276341
0.00239079
0.00263089
0.000792811
0.00263564
0.00242285
0.00245311
0.000581997
0.00281843
0.002476
0.00269582
0.00259687
0.00281295
0.00273014
0.0028114
0.00223564
0.00274714
0.00044849
0.00269087
0.00261151
0.00235863
0.00274681
0.00280905
0.00248387
0.00185599
0.00273008
0.00221625
0.00240148
0.00280947
0.00278446
0.00234699
0.00256815
0.00276256
0.00259154
0.00247679
0.000398364
0.00242709
0.00223979
0.00233117
0.00222403
0.000529886
0.00278706
0.00244595
0.0025299
0.00272663
0.00234314
0.00256694
0.00211899
0.00219707
0.000194268
0.00080786
0.00252989
0.0026854
0.00252068
0.00239238
0.00281654
0.00272028
0.00239847
0.0025403
0.00280068
0.00246741
0.00272335
0.0024453
0.00268342
0.00250637
0.00244946
0.00273791
0.00280846
0.00250154
0.00223714
0.000367901
0.00273899
0.00231215
0.000459357
0.00253026
0.000160764
0.00272391
0.00250711
0.00247257
0.000405716
0.00274114
0.00228506
0.00273676
0.00213064
0.000414186
0.00203869
0.00248591
0.00280828
0.00281213
0.00281076
0.00272922
0.000704839
0.00257005
0.00252142
0.00280734
0.00274174
0.00268178
0.00231772
0.00248998
0.00249246
0.00249586
0.00246941
0.00273143
0.00281798
0.00258832
0.00276961
0.00222761
0.00280688
0.00236469
0.000506204
0.00231949
0.00269834
0.00258684
0.00233472
0.00273632
0.00279261
0.00248249
0.00257809
0.00255309
0.00225673
0.000610663
0.000295
0.00274122
0.0025778
0.00265339
0.00279083
0.00273614
0.000710499
0.00249836
0.00229063
0.0024833
0.00269722
0.00265381
0.0027603
0.00183644
0.00265844
0.00274161
0.00217358
0.00280144
0.00275618
0.000410752
0.00254096
0.00275836
0.0027171
0.00249063
0.00238885
0.00236333
0.00276562
0.00232817
0.00277022
0.00207655
0.00272614
0.00263633
0.00260733
0.00279398
0.00238002
0.00251124
0.00249871
0.0024779
0.00254015
0.00274258
0.00233376
0.00255259
0.00270783
0.002503
0.00280053
0.00232257
0.00235253
0.00277891
0.00272122
0.00226348
0.00273451
0.0026351
0.00250614
0.00277924
0.00267925
0.00273308
0.00248136
0.00266056
0.00253549
0.0028037
0.00273511
0.00260345
0.00219495
0.00275601
0.00274259
0.000358906
0.00273555
0.00272052
0.00243768
0.00264822
0.000384211
0.000549954
0.00276575
0.00211763
0.00280327
0.00191812
0.00254539
0.00239089
0.00237757
0.00271481
0.00276059
0.00276864
0.00273284
0.00266336
0.00252181
0.00263691
0.00243462
0.00268908
0.00250357
0.00277311
0.00253736
0.00240152
0.00274024
0.00272482
0.000398122
0.00275828
0.00275383
0.00265169
0.00273501
0.00273717
0.00280154
0.00233173
0.00256764
0.00231639
0.0027773
0.00276985
0.00273212
0.00271463
0.00250214
0.000492566
0.00268624
0.00237831
0.00273101
0.00254337
0.000165926
0.00271267
0.00267862
0.00273953
0.00274269
0.00258784
0.00278101
0.00231761
0.00238347
0.000186888
0.00272904
0.00278426
0.00273079
0.00240497
0.00270285
0.00272686
0.00270119
0.00255945
0.00249079
0.00270581
0.00271341
0.00279253
0.00275975
0.00268316
0.00277925
0.0027619
0.00244247
0.00278783
0.00217799
0.00270291
0.00276847
0.00279335
0.00260564
0.00268753
0.00272949
0.00272838
0.00279541
0.00272957
0.00272233
0.00260958
0.00272902
0.00277096
0.00242422
0.00250468
0.00270932
0.00232749
0.00272695
0.00255975
0.00258007
0.00273006
0.000179242
0.00273676
0.00276613
0.0024047
0.00272764
0.00275065
0.00270303
0.00262034
0.00272503
0.00272552
0.0024817
0.00277682
0.00275218
0.0027244
0.00273435
0.00279536
0.00270932
0.00250845
0.0027257
0.0023401
0.00272713
0.00272644
0.00272375
0.00251082
0.00278917
0.0027215
0.00271797
0.00271019
0.00277973
0.00251191
0.00279648
0.00257017
0.0026266
0.00272934
0.00273807
0.00273869
0.0026364
0.00272414
0.00272604
0.00271683
0.0027226
0.00272626
0.00273459
0.00272506
0.00278218
0.00244749
0.0027259
0.0027218
0.0027336
0.00275921
0.00278448
0.00273071
0.00272416
0.00272644
0.00270255
0.00276133
0.00274987
0.00241192
0.00272209
0.00231739
0.00271094
0.00275222
0.00272573
0.00271854
0.00276772
0.00278007
0.00278697
0.00272367
0.00260586
0.0027232
0.0027228
0.00272366
0.00254703
0.00256921
0.00273449
0.00272163
0.00275015
0.00278641
0.00277004
0.00267252
0.0026245
0.00271512
0.0026959
0.00272473
0.00273298
0.00272181
0.00264959
0.00272169
0.00270209
0.00245722
0.00272207
0.00268845
0.00250736
0.00251389
0.00272398
0.00272237
0.00270087
0.00270864
0.0027706
0.00277488
0.00272122
0.00259257
0.00263724
0.00272498
0.00276305
0.00272201
0.00272046
0.00273761
0.00272055
0.00272195
0.00270544
0.00270389
0.00270437
0.00268116
0.00254565
0.00272322
0.00272013
0.00240386
0.00272006
0.00241694
0.00264722
0.00278756
0.00272697
0.00266562
0.00272241
0.00277695
0.00272115
0.00272187
0.00271999
0.00271142
0.00271926
0.00271457
0.0023517
0.00275749
0.00271779
0.0027221
0.00272812
0.00258596
0.00271965
0.00263791
0.00271207
0.00275132
0.00271707
0.0027764
0.00272801
0.00272113
0.0027195
0.000570149
0.00266696
0.00271058
0.00275953
0.00271896
0.00280897
0.0027217
0.0027198
0.00236183
0.00274936
0.00274004
0.00255146
0.00271967
0.0027039
0.00267511
0.00277255
0.00259826
0.00270934
0.0027202
0.00274286
0.00271634
0.0027834
0.00272064
0.00272434
0.00269169
0.00247215
0.00251392
0.002649
0.00276443
0.002777
0.00268617
0.00271906
0.00270309
0.00270919
0.00272175
0.00272537
0.00270959
0.00272491
0.0027309
0.00271728
0.00280687
0.00271847
0.00271835
0.00243752
0.00271758
0.00261666
0.00271739
0.00276607
0.00271674
0.00271682
0.00271818
0.00271705
0.00270803
0.00274305
0.00271743
0.00273326
0.00271682
0.00247681
0.00271382
0.00271658
0.00273949
0.00271825
0.00272328
0.00271648
0.00271346
0.00276852
0.00271653
0.00272532
0.0026826
0.00272226
0.00268273
0.0027652
0.00271626
0.00252355
0.00271548
0.00272817
0.00271334
0.00271639
0.0027156
0.00276187
0.00259324
0.00277496
0.00274112
0.00276498
0.00265922
0.00273304
0.00270722
0.00272801
0.00274961
0.0027478
0.00272065
0.00271825
0.00271426
0.00272934
0.00271588
0.00254894
0.00275409
0.00272419
0.00273224
0.00274316
0.00268282
0.00271325
0.00271108
0.00274229
0.00272817
0.00271516
0.00271376
0.00271268
0.00274846
0.00271116
0.00271372
0.00245194
0.00264625
0.00271344
0.00271385
0.00271306
0.00275531
0.00271219
0.0027108
0.00271308
0.00271366
0.00256753
0.00271216
0.00272535
0.00271376
0.00271033
0.00274054
0.00255894
0.00268593
0.00272312
0.00275961
0.00272776
0.00273054
0.000358261
0.000200828
0.00247051
0.00255538
0.00275382
0.00271361
0.00272725
0.00263343
0.00271099
0.00271791
0.00271132
0.00271563
0.00271377
0.00272013
0.00270837
0.00266677
0.0027135
0.00274545
0.000391411
0.00265661
0.000509728
0.00271038
0.00272786
0.0027097
0.0027525
0.0027099
0.00270603
0.00267601
0.00253194
0.00261898
0.00272884
0.00241206
0.00253047
0.00258411
0.00272095
0.00259051
0.00271333
0.00272825
0.00273316
0.00270845
0.00272631
0.00270927
0.00270824
0.00272217
0.0027101
0.00272522
0.00271005
0.0026821
0.00271113
0.00247644
0.00274466
0.00270796
0.00270871
0.00272332
0.00271084
0.00270678
0.00271261
0.00273628
0.00239521
0.00259625
0.0026287
0.00273223
0.00271061
0.00273922
0.00268358
0.00272522
0.00270083
0.00274079
0.00271104
0.00270605
0.00272832
0.00274549
0.00257197
0.00271042
0.00270157
0.00259303
0.00255915
0.00270741
0.00238111
0.00270032
0.00273504
0.00250122
0.00272307
0.00271112
0.00270589
0.00255575
0.00274317
0.00268368
0.000433388
0.0027015
0.00272326
0.00271735
0.00270119
0.00270622
0.00270608
0.00269701
0.00273794
0.00273454
0.0027073
0.00271279
0.00274063
0.00270373
0.00271475
0.00271101
0.00272255
0.00272689
0.00268053
0.00270072
0.00270678
0.00270388
0.00270641
0.00269335
0.00271503
0.00271772
0.000162123
0.00264994
0.000484617
0.00270751
0.00270521
0.00199325
0.00269472
0.00270753
0.0027016
0.00271888
0.00269616
0.00272134
0.00271072
0.00271509
0.0026902
0.00272488
0.00270855
0.00269128
0.00269939
0.00263647
0.0025502
0.00271417
0.00273301
0.00270852
0.00247549
0.00269454
0.00270877
0.00265741
0.00270421
0.00271605
0.0027187
0.00270997
0.00269633
0.00268943
0.00274397
0.00269773
0.0023695
0.00267183
0.00270292
0.000459261
0.00270809
0.00236396
0.00269567
0.00271696
0.00260544
0.00270364
0.00270187
0.00270871
0.00261957
0.00271039
0.00271238
0.00269589
0.00265435
0.000555569
0.00272652
0.00273636
0.00273686
0.00273399
0.0027204
0.00268897
0.00272789
0.00271497
0.00253857
0.00269438
0.00245859
0.00270325
0.00269963
0.00273315
0.00269132
0.00270465
0.00273185
0.00270438
0.00232311
0.00273036
0.000194693
0.00251945
0.0027086
0.002698
0.0027024
0.00269265
0.00256598
0.00247583
0.00272617
0.00269395
0.00260438
0.0027041
0.00271388
0.00264448
0.00274057
0.00273263
0.00270537
0.00269064
0.00271846
0.00270004
0.0026738
0.00270644
0.00253405
0.0027121
0.00267545
0.00270541
0.00270834
0.00256556
0.000304623
0.00269242
0.00264542
0.000509261
0.00270607
0.00268849
0.00270643
0.00270578
0.00272166
0.0026667
0.00269786
0.000245987
0.00267618
0.00271046
0.000282278
0.00268437
0.00018442
0.00270669
0.00271361
0.00266275
0.00262498
0.00267607
0.0026433
0.00262353
0.00270647
0.0027279
0.00269194
0.00270148
0.0026459
0.0025481
0.00267522
0.00249283
0.00270075
0.00272666
0.0023044
0.00270191
0.00270259
0.00270884
0.00225376
0.00271978
0.00270283
0.00266327
0.00267379
0.00269838
0.00270705
0.00268626
0.00247337
0.00234053
0.00266208
0.00253545
0.00270625
0.00261097
0.00267192
0.00266305
0.0025162
0.0026593
0.00270887
0.0027091
0.00270475
0.00269623
0.00268022
0.00265259
0.00271079
0.00266301
0.0025728
0.00272242
0.00268196
0.00272643
0.00249897
0.00266975
0.00268738
0.00271476
0.00270416
0.00272222
0.00269458
0.00270419
0.00270353
0.00266205
0.00269003
0.00272912
0.00272182
0.00272942
0.000248697
0.00251142
0.00251168
0.00270434
0.00266031
0.00270517
0.00278312
0.00270239
0.00254681
0.00264955
0.00267863
0.00270752
0.00244164
0.00250595
0.00265798
0.00266244
0.00266814
0.00268418
0.00265638
0.00272074
0.00272087
0.00270584
0.00271206
0.0026968
0.002597
0.00269991
0.00269923
0.00270415
0.00265523
0.00272652
0.00269448
0.00266736
0.00279956
0.00255554
0.00269474
0.00272541
0.00270401
0.00261042
0.00270102
0.00264279
0.00261235
0.00228203
0.00269461
0.0024815
0.0027225
0.00268828
0.00257541
0.0026097
0.00271563
0.00263342
0.00265223
0.00261324
0.00270125
0.00270323
0.000505975
0.00270307
0.00261302
0.00268231
0.000557529
0.00270224
0.00261178
0.00249611
0.00264247
0.00260791
0.00246061
0.002702
0.002713
0.00269977
0.00260969
0.00270182
0.00062598
0.000502647
0.00266473
0.00270208
0.00272098
0.00280129
0.00270211
0.00266718
0.00257979
0.00260696
0.00259515
0.00057756
0.00269534
0.00218524
0.00259036
0.00269784
0.00270142
0.00269332
0.00267377
0.00270027
0.000176917
0.000189356
0.00258293
0.00267406
0.00264906
0.0027201
0.00258051
0.00268661
0.00269849
0.00263079
0.00270378
0.002716
0.00268994
0.00225862
0.00270126
0.00257988
0.000523538
0.00243268
0.00269713
0.00269883
0.00271603
0.00257797
0.00257801
0.00268061
0.00267146
0.00257939
0.00249165
0.00257498
0.00269801
0.000218873
0.00242372
0.0025807
0.00260376
0.000522634
0.00266234
0.00257118
0.000479721
0.000432813
0.00270017
0.00254467
0.00271355
0.00269542
0.00272038
0.00272279
0.00267704
0.00269723
0.00266878
0.00270016
0.00269955
0.000237324
0.000521782
0.00264633
0.000405888
0.00259411
0.00270004
0.00239956
0.00256685
0.00272255
0.00257436
0.00255761
0.00261802
0.00267362
0.0026965
0.0026993
0.00230594
0.00279191
0.00269582
0.00269449
0.00254768
0.00270409
0.00256156
0.00269797
0.00245669
0.000502074
0.00260012
0.00269397
0.00268496
0.00052737
0.00245941
0.00269198
0.00224851
0.000458518
0.00267596
0.00247759
0.002679
0.00246065
0.00256456
0.00269295
0.0027157
0.00269822
0.00245319
0.00269551
0.00246037
0.00266015
0.00254049
0.00237216
0.00267496
0.00245874
0.00271888
0.0026475
0.00269841
0.00216085
0.00259466
0.00267581
0.00256219
0.00268834
0.000174163
0.000165561
0.00269649
0.00264389
0.002456
0.0026671
0.00271331
0.00265083
0.0025322
0.00218968
0.000529897
0.00267049
0.00259635
0.00269713
0.00271059
0.00266154
0.00265936
0.00266174
0.00245283
0.00269126
0.00237442
0.00272013
0.00267698
0.00269372
0.00247516
0.00240478
0.00270384
0.00245237
0.00269735
0.00237616
0.000233413
0.00269796
0.00237623
0.00266327
0.00237452
0.00267548
0.00047717
0.00258011
0.00242752
0.000664766
0.00269628
0.00267641
0.00237127
0.000234228
0.0024569
0.00255759
0.00253189
0.00242206
0.00236682
0.00237257
0.00271409
0.0026834
0.00253247
0.00257242
0.00240871
0.00233657
0.00265784
0.00269833
0.00267745
0.00243137
0.00259351
0.00243057
0.00267433
0.00260648
0.000498309
0.0026634
0.000524231
0.00269064
0.00267512
0.0026919
0.00264175
0.00261266
0.0023615
0.00266248
0.0024665
0.00268947
0.00250597
0.00260674
0.00266119
0.00269542
0.00244801
0.000252362
0.00269261
0.00259311
0.00244358
0.00271436
0.00261195
0.00229868
0.00266133
0.000286645
0.00237545
0.00260486
0.00281464
0.000265552
0.00254458
0.0025539
0.00267131
0.00280925
0.00239038
0.00258011
0.00268763
0.000396883
0.00257352
0.00261169
0.00257918
0.00235557
0.00269525
0.000231437
0.00257087
0.0026866
0.00232815
0.00267299
0.00271204
0.00234247
0.00269428
0.00269499
0.00260433
0.00259355
0.00260966
0.0027027
0.000232145
0.000243096
0.00261673
0.00235173
0.00245974
0.000230117
0.00269004
0.00257849
0.000495333
0.00265996
0.00244244
0.00257218
0.00271599
0.000430798
0.000243405
0.00245308
0.00260247
0.000524015
0.000200366
0.00018942
0.00245134
0.00250514
0.00237017
0.00238188
0.00265569
0.00267378
0.00267593
0.00261132
0.00266007
0.00268576
0.000222687
0.00269236
0.000211188
0.00022345
0.00269718
0.00256999
0.00239499
0.000245421
0.00268184
0.00230967
0.00263967
0.000487486
0.00235979
0.000490172
0.00267149
0.00049495
0.002503
0.00226046
0.000492794
0.00271173
0.000537106
0.00257788
0.00258965
0.000467689
0.000495211
0.00245423
0.000497425
0.00254419
0.000518572
0.000499491
0.00234844
0.00245915
0.00237094
0.00238894
0.000365199
0.000244398
0.000501363
0.00269089
0.00253381
0.00265839
0.00268905
0.00244872
0.00255088
0.00243837
0.00266987
0.00257626
0.002688
0.000487612
0.002444
0.00219988
0.00261066
0.00260671
0.00269179
0.00254575
0.0021729
0.000225728
0.00237372
0.000502955
0.00271547
0.0027043
0.00268378
0.00243763
0.00257697
0.00228329
0.00245532
0.00265668
0.000240113
0.00256355
0.0025996
0.00229308
0.000481592
0.00232424
0.00237121
0.00243351
0.00256742
0.00266814
0.000481751
0.00268731
0.00265361
0.000479445
0.00260971
0.00270938
0.000489432
0.00236917
0.00266953
0.00265754
0.000504102
0.00236102
0.00267994
0.00263767
0.000477719
0.00268511
0.00234251
0.00236642
0.00265486
0.000221234
0.00268638
0.00223705
0.00267408
0.0027002
0.00268128
0.00235638
0.00239805
0.00267133
0.00227398
0.00269465
0.0022343
0.00257574
0.000254459
0.000512164
0.000490884
0.000235382
0.00258646
0.000525219
0.00267917
0.00245589
0.00226917
0.000491639
0.000221239
0.00243668
0.00266617
0.00268186
0.00270681
0.0023735
0.00257581
0.00261216
0.000476101
0.00260852
0.00234613
0.00266331
0.00267623
0.00237075
0.00267675
0.00254803
0.00240737
0.00236674
0.000503602
0.00265287
0.00267114
0.00241292
0.00265134
0.00219891
0.00021702
0.00242895
0.000459602
0.00021662
0.0026071
0.000215727
0.00265032
0.0025956
0.000214149
0.00257425
0.000492416
0.000211887
0.00265737
0.00244032
0.000474074
0.000209022
0.000205693
0.00263539
0.00263416
0.00264577
0.00256329
0.00243226
0.00266575
0.00235229
0.00265158
0.000239854
0.000231867
0.000202117
0.00258355
0.00245605
0.00260536
0.000482966
0.00266388
0.000508351
0.000493619
0.00264735
0.00260271
0.000486753
0.000468283
0.00245562
0.00214204
0.000198544
0.000480625
0.00257254
0.00021655
0.0023512
0.00264236
0.00259713
0.0025768
0.00263206
0.000217689
0.000215457
0.00236985
0.00257059
0.000213844
0.00265316
0.000500482
0.00263492
0.00233833
0.000243423
0.000196967
0.000213316
0.00049365
0.0024469
0.00231458
0.00266704
0.00256371
0.00256807
0.00270472
0.00236792
0.0025807
0.00269585
0.00263693
0.000211748
0.00268868
0.00244937
0.00254538
0.000434099
0.00266184
0.000195271
0.0026902
0.00265174
0.000215511
0.000450662
0.00260694
0.00262461
0.00258296
0.00245248
0.000213994
0.0024543
0.000231893
0.000486915
0.000451304
0.00255358
0.00266025
0.00258924
0.00257647
0.00267064
0.00244815
0.000479137
0.00254258
0.000205374
0.000204821
0.00225946
0.00020893
0.00245584
0.000481046
0.00260694
0.00269437
0.00242762
0.00255693
0.00245527
0.00242353
0.00208801
0.00268303
0.000194376
0.000204664
0.00260375
0.000216643
0.000211174
0.00264996
0.00235941
0.00236304
0.000225273
0.00256635
0.000212788
0.00049481
0.00264617
0.00269494
0.000219375
0.000490033
0.00253883
0.000217536
0.00270658
0.00243647
0.000208939
0.00254656
0.00234678
0.00252765
0.000467273
0.00242366
0.00267097
0.000178912
0.000194692
0.00263569
0.00205154
0.00236862
0.00263326
0.00256307
0.00264274
0.00235139
0.00236529
0.000216138
0.00258546
0.00257964
0.00253147
0.00264578
0.00253815
0.002366
0.000485242
0.000215712
0.00240534
0.00267488
0.00243911
0.00227748
0.00219481
0.000498658
0.000211356
0.0025658
0.00241544
0.000499212
0.00261979
0.000496589
0.000195799
0.00233085
0.00246361
0.00251191
0.00242014
0.000214995
0.000217955
0.00233442
0.00049484
0.000497855
0.000499049
0.00232783
0.00231633
0.00245908
0.0025454
0.0024159
0.000437369
0.000199101
0.00254718
0.00227852
0.00252483
0.000478158
0.000215733
0.00253301
0.00260031
0.00236708
0.00253428
0.00232777
0.00239965
0.00259232
0.000496672
0.000218316
0.00240688
0.000451949
0.002331
0.000202347
0.00234057
0.00020428
0.000495912
0.00020976
0.00251093
0.000208912
0.00251288
0.000495544
0.00238235
0.00233892
0.000200319
0.000487828
0.00231658
0.000491515
0.000490226
0.000196552
0.00240353
0.000203848
0.00238679
0.000197871
0.00215101
0.00248212
0.00227462
0.000216241
0.00021439
0.000477041
0.000475567
0.000496932
0.000489863
0.000206181
0.000193984
0.00230599
0.00236359
0.0024402
0.00232376
0.000210933
0.000185451
0.000459011
0.00214521
0.00232871
0.00226537
0.00231722
0.00232716
0.00242608
0.00230118
0.0001999
0.000469979
0.00225791
0.000203167
0.000461663
0.000195728
0.000449038
0.0021273
0.00220353
0.000177696
0.000360325
0.000158355
0.000152502
0.000386427
0.000180713
0.000195335
0.000489092
0.000208022
0.000489724
0.00019611
0.000196707
0.000486982
0.000193972
0.0001965
0.00049364
0.000470839
0.000208019
0.000215203
0.000203371
0.000467267
0.000211078
0.000473537
0.000180077
0.000154772
0.000155241
0.000453506
0.000184134
0.00019121
0.000479483
0.000213099
0.00210464
0.00281268
0.0022547
0.00231031
0.00228709
0.000476851
0.000190828
0.00261704
0.00265823
0.00253996
0.000155134
0.00213206
0.00266029
0.00241213
0.0021164
0.000450728
0.000431842
0.00282026
0.00259389
0.000230845
0.000161248
0.000236391
0.0027009
0.00191582
0.00264918
0.00253115
0.000248414
0.00252096
0.00221576
0.00265256
0.000146397
0.000145237
0.000240073
0.000213972
0.000271771
0.000209201
0.000231343
0.000221643
0.00262544
0.000498668
0.00255209
0.000211626
0.000187377
0.000199477
0.000515392
0.00232704
0.00271161
0.000227938
0.000178723
0.000183153
0.00260087
0.00263891
0.000396116
0.00243351
0.0028196
0.00221864
0.00191132
0.000441105
0.000231008
0.000617203
0.000428939
0.000641514
0.000458649
0.0004241
0.000440917
0.000143608
0.000138983
0.00257591
0.00234644
0.00208156
0.00281678
0.000246386
0.000422824
0.000398862
0.00213267
0.00219134
0.000462868
0.00245816
0.00225366
0.0022194
0.00262424
0.000203812
0.00202951
0.0022872
0.00223827
0.000523012
0.00278107
0.00226374
0.00246903
0.000176221
0.00245357
0.00274905
0.00236302
0.000350246
0.000209745
0.00265567
0.00253468
0.00269075
0.00190594
0.00206795
0.000168046
0.00254065
0.00277764
0.00200412
0.00277583
0.00258335
0.000413438
0.00260173
0.00275952
0.00239905
0.0026742
0.00248487
0.00195234
0.00205367
0.000136441
0.00265766
0.000362083
0.000175981
0.00271108
)
;

boundaryField
{
    patch0
    {
        type            nutkWallFunction;
        Cmu             0.09;
        kappa           0.41;
        E               9.8;
        value           nonuniform List<scalar> 
4010
(
0.00030987
0.00030987
0.000311142
0.000311142
0.000308796
0.000308796
0.000309906
0.000309906
0.00030622
0.00030622
0.000304127
0.000304127
0.000303763
0.000303763
0.000291803
0.000291803
0.000294302
0.000294302
0.000309566
0.000309566
0.000268365
0.000268365
0.000287521
0.000287521
0.000213651
0.000213651
0.000260768
0.000260768
0.000313914
0.000313914
0.000313867
0.000313867
0.000252935
0.000252935
0.000276352
0.000276352
0.000245649
0.000245649
0.000275844
0.000275844
0.000185581
0.000185581
0.000282046
0.000282046
0.000295256
0.000295256
0.000300199
0.000300199
0.000292678
0.000292678
0.000304856
0.000304856
0.000300034
0.000300034
0.000315702
0.000315702
0.000301997
0.000301997
0.000247795
0.000247795
0.000290916
0.000290916
0.000291805
0.000291805
0.000302859
0.000302859
0.000272029
0.000272029
0.000311097
0.000311097
0.000302379
0.000302379
0.000275076
0.000275076
0.000304001
0.000304001
0.000243707
0.000243707
0.000282906
0.000282906
0.000287531
0.000287531
0.000195923
0.000195923
0.000297715
0.000297715
0.000293903
0.000293903
0.000249524
0.000249524
0.000235252
0.000235252
0.000242678
0.000242678
0.000317854
0.000317854
0.000174988
0.000174988
0.000173988
0.000173988
0.000308176
0.000308176
0.000198253
0.000198253
0.000285163
0.000285163
0.000305246
0.000305246
0.000214253
0.000214253
0.000311445
0.000311445
0.000240488
0.000240488
0.000256202
0.000256202
0.000314238
0.000314238
0.000312144
0.000312144
0.000302421
0.000302421
0.000313534
0.000313534
0.000301294
0.000301294
0.000241574
0.000241574
0.000301295
0.000301295
0.000318644
0.000318644
0.000312817
0.000312817
0.000301994
0.000301994
0.000242211
0.000242211
0.000306194
0.000306194
0.0002316
0.0002316
0.000313427
0.000313427
0.000240846
0.000240846
0.000254611
0.000254611
0.000317462
0.000317462
0.000269919
0.000269919
0.000319257
0.000319257
0.000319502
0.000319502
0.000317621
0.000317621
0.000306354
0.000306354
0.000318585
0.000318585
0.00030578
0.00030578
0.000246327
0.000246327
0.000183231
0.000183231
0.000308306
0.000308306
0.00030459
0.00030459
0.000317309
0.000317309
0.000312388
0.000312388
0.000172267
0.000172267
0.000180199
0.000180199
0.000313049
0.000313049
0.000309853
0.000309853
0.000220997
0.000220997
0.000225816
0.000225816
0.000184851
0.000184851
0.000289689
0.000289689
0.000319017
0.000319017
0.000317657
0.000317657
0.000312366
0.000312366
0.000274678
0.000274678
0.000303743
0.000303743
0.000185429
0.000185429
0.000312462
0.000312462
0.000311423
0.000311423
0.000259156
0.000259156
0.000320829
0.000320829
0.000261942
0.000261942
0.000272452
0.000272452
0.000311651
0.000311651
0.000221713
0.000221713
0.000318388
0.000318388
0.00024002
0.00024002
0.000311417
0.000311417
0.000248308
0.000248308
0.000316176
0.000316176
0.000174703
0.000174703
0.000305021
0.000305021
0.000313532
0.000313532
0.000310773
0.000310773
0.000318658
0.000318658
0.000300413
0.000300413
7.86652e-05
7.86652e-05
0.000183678
0.000183678
0.000174656
0.000174656
0.000312852
0.000312852
0.000268669
0.000268669
0.000260873
0.000260873
0.000319785
0.000319785
0.000227439
0.000227439
8.16422e-05
8.16422e-05
0.000318092
0.000318092
0.000300556
0.000300556
2.85664e-05
2.85664e-05
0.000248652
0.000248652
0.000194406
0.000194406
0.000224993
0.000224993
0.000307678
0.000307678
0.000249592
0.000249592
0.000303478
0.000303478
0.000312462
0.000312462
0.000318318
0.000318318
0.000313327
0.000313327
2.39359e-05
2.39359e-05
2.39359e-05
2.45617e-05
2.45617e-05
2.45617e-05
0.000299868
0.000299868
0.000230846
0.000230846
0.000278019
0.000278019
0.000257731
0.000257731
0.000311252
0.000311252
0.000311476
0.000311476
0.000241373
0.000241373
4.20225e-05
4.20225e-05
4.20225e-05
0.000248884
0.000248884
0.000294724
0.000294724
0.000299252
0.000299252
0.000282447
0.000282447
7.83351e-05
7.83351e-05
0.000307778
0.000307778
0.000315413
0.000315413
3.27197e-05
3.27197e-05
0.000249013
0.000249013
0.000275782
0.000275782
0.000297423
0.000297423
7.99454e-05
7.99454e-05
0.000238487
0.000238487
0.000232042
0.000232042
0.000270837
0.000270837
6.03405e-05
6.03405e-05
0.00032074
0.00032074
0.000227133
0.000227133
0.000298632
0.000298632
0.000293933
0.000293933
0.000320517
0.000320517
0.000312029
0.000312029
0.000318798
0.000318798
0.000205971
0.000205971
0.000247635
0.000247635
5.4161e-05
5.4161e-05
0.000307626
0.000307626
0.000294577
0.000294577
0.000216742
0.000216742
0.000313516
0.000313516
0.000319924
0.000319924
0.000276727
0.000276727
0.000173395
0.000173395
0.000249276
0.000249276
0.000254082
0.000254082
0.000225595
0.000225595
0.000320074
0.000320074
0.000253335
0.000253335
0.000269829
0.000269829
0.000291211
0.000291211
0.000315233
0.000315233
0.000292809
0.000292809
0.000266854
0.000266854
4.27269e-05
4.27269e-05
4.27269e-05
0.000279244
0.000279244
0.000205617
0.000205617
0.000225974
0.000225974
0.000204178
0.000204178
5.56638e-05
5.56638e-05
0.000313922
0.000313922
0.000225523
0.000225523
0.000266932
0.000266932
0.000302541
0.000302541
0.000213674
0.000213674
0.000281269
0.000281269
0.000195596
0.000195596
0.000230834
0.000230834
1.95363e-05
1.95363e-05
1.95363e-05
8.13246e-05
8.13246e-05
0.000231087
0.000231087
0.000308958
0.000308958
0.000289518
0.000289518
0.000258571
0.000258571
0.000320835
0.000320835
0.000310788
0.000310788
0.000273216
0.000273216
0.00027862
0.00027862
0.000319338
0.000319338
0.000280217
0.000280217
0.000245829
0.000245829
0.000226847
0.000226847
0.000308766
0.000308766
0.000259121
0.000259121
0.000279845
0.000279845
0.000312837
0.000312837
0.000320023
0.000320023
0.000287349
0.000287349
0.000205274
0.000205274
4.00935e-05
4.00935e-05
0.000312732
0.000312732
0.000212883
0.000212883
5.57339e-05
5.57339e-05
0.000289441
0.000289441
1.86992e-05
1.86992e-05
1.86992e-05
0.000312403
0.000312403
0.000274255
0.000274255
0.000227847
0.000227847
4.34451e-05
4.34451e-05
4.34451e-05
0.000312938
0.000312938
0.000209175
0.000209175
0.000313504
0.000313504
0.000196392
0.000196392
4.42478e-05
4.42478e-05
0.000188669
0.000188669
0.000257325
0.000257325
0.000319415
0.000319415
0.000320306
0.000320306
0.000320282
0.000320282
0.000246557
0.000246557
7.18319e-05
7.18319e-05
0.000296582
0.000296582
0.000230357
0.000230357
0.000319841
0.000319841
0.000313713
0.000313713
0.00030842
0.00030842
0.000212237
0.000212237
0.000282246
0.000282246
0.000257421
0.000257421
0.00028553
0.00028553
0.000232505
0.000232505
0.000311985
0.000311985
0.000320945
0.000320945
0.000299625
0.000299625
0.000315816
0.000315816
0.000236471
0.000236471
0.000319952
0.000319952
0.000262623
0.000262623
5.31956e-05
5.31956e-05
0.00021291
0.00021291
0.000243658
0.000243658
0.000236113
0.000236113
0.000214291
0.000214291
0.000312434
0.000312434
0.000318389
0.000318389
0.000257634
0.000257634
0.000293225
0.000293225
0.000233555
0.000233555
0.00020658
0.00020658
6.31622e-05
6.31622e-05
3.24821e-05
3.24821e-05
3.24821e-05
0.000312986
0.000312986
0.000298191
0.000298191
0.00024098
0.00024098
0.000265067
0.000265067
0.000312775
0.000312775
7.23632e-05
7.23632e-05
0.000279479
0.000279479
0.000209891
0.000209891
0.000237636
0.000237636
0.000243505
0.000243505
0.000305332
0.000305332
0.000315228
0.000315228
0.000171755
0.000171755
0.000240378
0.000240378
0.000313658
0.000313658
0.000200186
0.000200186
0.000319437
0.000319437
0.000314861
0.000314861
4.39405e-05
4.39405e-05
4.39405e-05
0.000232507
0.000232507
0.00031526
0.00031526
0.000310473
0.000310473
0.000259048
0.000259048
0.000224203
0.000224203
0.000261082
0.000261082
0.000315888
0.000315888
0.000213271
0.000213271
0.00025007
0.00025007
0.000191704
0.000191704
0.000311434
0.000311434
0.000303133
0.000303133
0.000299735
0.000299735
0.000318447
0.000318447
0.000257619
0.000257619
0.000284267
0.000284267
0.000262454
0.000262454
0.000276019
0.000276019
0.000288857
0.000288857
0.000312641
0.000312641
0.000219508
0.000219508