/*--------------------------------*- C++ -*----------------------------------*\
  =========                 |
  \\      /  F ield         | OpenFOAM: The Open Source CFD Toolbox
   \\    /   O peration     | Website:  https://openfoam.org
    \\  /    A nd           | Version:  8
     \\/     M anipulation  |
\*---------------------------------------------------------------------------*/
FoamFile
{
    version     2.0;
    format      ascii;
    class       volScalarField;
    location    "0.25";
    object      p_rgh;
}
// * * * * * * * * * * * * * * * * * * * * * * * * * * * * * * * * * * * * * //

dimensions      [1 -1 -2 0 0 0 0];

internalField   nonuniform List<scalar> 
1924
(
1.76496
3.00978
0.504475
0.160159
3.40525
-0.709661
-0.490353
-0.928007
-0.501412
1.25045
3.41534
1.12921
97.6024
7.9762
6.13096
6.17479
7.51261
5.2306
131.801
6.89277
1011.92
6.74159
5.92013
3.87144
6.5894
7.29836
7.27257
2.03039
3.2581
1486.72
5.77914
6.90291
-2.01722
6.3261
2.3201
5.932
8.30845
3.58799
1662.38
5.77237
7.98322
583.751
7.50534
5.93981
262.549
219.799
373.158
0.225851
760.315
729.036
6.12329
586.938
5.29673
6.15456
67.177
1.86275
647.273
86.8343
0.661234
6.74981
5.89064
6.3017
5.93059
1720.54
6.27138
1.02362
6.49829
5.75909
87.0611
6.02013
-25.792
6.33917
1707.57
103.653
3.60585
-32.7833
1.75369
3.65537
3.00995
5.95289
3.85424
7.08309
1680.31
1045.43
-2.25471
5.73904
1.62844
6.13788
508.628
223.323
6.56611
7.05274
112.298
13.4347
1001.08
6.35218
1.71569
3.64405
6.79222
-28.5244
0.698011
1116.37
6.76902
6.95388
-25.8706
3.44272
11.0346
-31.321
6.75822
101.549
1.46893
115.125
2.79625
1666.48
3.63157
956.034
0.0903224
6.1334
5.91259
2.6028
-4.6744
1125.71
836.179
710.234
6.43596
-23.0501
-34.5668
3.65141
108.761
1497.35
1.8586
-0.420884
-33.1109
1591.1
1162.02
49.0574
2.00183
36.5407
4.25544
2.33765
1.16367
6.41207
956.168
520.328
-1.36072
1604.92
-30.0617
-27.7295
6.71794
6.01116
1746.03
1173.32
-38.4662
-1.29094
-1.52971
-22.0151
1462.36
1.93524
1.53941
1714.08
1398.05
-35.6722
-2.01561
1089.26
1754.79
7.74343
-15.5237
1545.26
2.69471
110.929
5.30277
-2.30356
3.53506
6.90384
0.955794
234.484
1678.41
-26.744
5.88169
-1.80481
138.069
6.02098
3.57382
-10.9539
674.286
131.633
-40.9496
56.8507
2.4472
163.846
-28.9265
-2.23936
1.97973
-2.03541
1.61505
1092.83
1.06844
455.326
3.52707
1232.83
350.485
3.07365
89.0393
1.92252
4.26361
644.302
0.296135
576.5
-28.9818
-29.7179
924.493
123.761
5.21093
1.59628
-5.49906
3.53875
6.72529
-24.8265
0.504036
3.65393
-19.0226
1453.02
75.4683
5.49018
5.65814
1.99871
1.79433
3.65834
4.8961
1238.41
202.847
6.64685
105.317
-27.5408
7.24306
1790.32
5.15391
3.4748
107.088
933.608
6.00269
996.74
4.86525
1070.86
1208.07
645.137
8.16572
1.01967
3.69174
3.6856
642.666
1037.94
5.93404
127.594
2.67591
5.66307
7.24985
984.04
-18.1037
10.4627
-15.6605
51.6267
6.8699
3.41185
6.93272
3.84509
13.2206
3.6643
-36.1276
1401.97
499.668
1726.61
201.176
1024.83
6.63932
4.05689
9.05277
7.61485
105.686
1263.79
680.519
1234.24
6.6091
6.75728
458.178
31.9126
2.31023
1187.84
6.14738
992.711
35.9879
1146.91
6.70436
5.37277
778.611
1748.62
5.81131
1134.14
3.69712
5.55576
1325.86
108.705
4.97412
6.68908
11.5998
128.954
7.92075
4.72866
995.959
611.64
1261.95
6.06055
6.82791
5.68507
2.48732
8.60062
-10.088
11.8003
7.42433
-2.42296
1.63726
68.689
82.7214
1739.6
7.73637
3.95723
931.361
711.801
0.772156
2.36262
1263.49
6.50197
5.76574
11.7236
3.7103
6.77047
6.68303
8.71083
6.91131
69.705
3.95359
1707.29
6.28962
1172.03
5.83949
6.26862
426.913
6.39924
6.12384
9.84838
7.08166
1385.26
1791.07
5.35755
1255.8
3.79136
1149.05
12.4146
566.043
6.35779
6.70326
5.62242
5.18889
6.58711
6.95113
30.9989
6.13007
6.37329
6.96321
7.92829
4.8841
-1.89213
59.6972
5.91867
7.00165
-33.5291
5.73821
5.95622
6.7431
6.3474
6.28641
3.83412
1047.08
3.96976
159.017
4.71241
3.74135
6.54521
7.09073
18.9221
1757.26
6.00734
696.339
6.46913
7.21081
-36.8676
7.05342
6.57487
2.95181
6.17658
1598.78
3.80662
519.594
-35.4519
1502.4
6.65482
4.49255
6.43077
96.649
7.06949
6.732
6.02829
12.6233
12.5072
6.85587
6.6908
4.27306
5.57085
5.6748
0.991314
5.45237
6.95685
4.39313
1044.78
6.90603
5.2264
2.78952
1673.68
6.34223
6.89174
6.61302
4.24497
6.80913
6.06971
7.08742
6.95113
5.08813
6.42264
6.81267
6.82617
357.133
6.99986
3.91258
1760.46
6.35311
1554.46
6.69004
3.83044
148.906
6.53133
5.95498
6.27789
5.74549
3.32106
6.99851
7.90806
4.87121
5.76227
6.10484
6.23383
4.05821
6.63332
7.77396
6.05169
144.964
6.49788
6.4255
6.82455
6.6004
136.632
6.97888
6.18581
40.8207
4.75829
5.10707
4.05877
1718.76
9.52406
6.31543
6.13052
6.69875
6.76379
6.67324
6.38977
6.53634
6.91809
6.90529
5.91621
6.81372
2.74358
6.77785
6.84641
6.18879
0.666336
5.44395
4.58665
6.25478
6.59023
6.93284
1737.89
5.33761
5.84983
234.378
6.78256
6.70649
6.66058
5.62051
6.93982
6.38579
5.15568
3.91396
4.53768
6.556
6.06503
6.48862
6.45569
6.69962
7.64283
6.64558
6.16138
6.18456
5.70447
4.35421
5.04862
6.92353
6.94818
3.8421
5.99057
6.92507
6.66789
6.14926
6.5939
6.33857
5.83594
5.87017
6.39226
6.77913
4.99159
6.17351
6.8499
6.55581
1735.59
6.04991
3.93239
4.88303
6.82679
1123.5
1732.59
6.32543
3.71236
6.85183
6.64057
6.05011
6.27955
6.88288
5.82546
5.95088
6.1427
1752.22
1712.11
6.80044
6.20222
-35.916
6.60955
88.3024
5.52914
4.33571
0.912059
12.1647
6.49131
4.80194
6.76422
6.88301
6.54193
3.97217
6.45223
5.94189
8.51606
5.35896
5.85888
6.67859
6.21469
6.4302
6.51154
6.25777
6.02135
5.51129
6.15637
4.65101
1714.22
6.85972
6.27152
1532.69
6.22862
6.12596
5.26894
6.4221
3.19177
6.36024
6.1746
6.32409
5.59256
6.6642
1743.56
6.40771
6.30411
6.89785
4.12746
5.50328
6.19245
6.83043
5.85475
5.91012
3.07302
6.62259
6.29212
6.90918
5.73527
6.27811
1743.25
5.12222
4.60628
0.490819
6.75475
6.57507
3.75626
6.02708
6.23535
6.83486
5.93042
6.12544
6.81977
3.41089
6.14954
6.3756
6.30821
6.83176
1754.59
6.7818
5.0406
6.65484
6.58876
6.51904
6.83457
6.6599
5.7283
6.71028
5.86022
6.75877
5.51838
6.25409
6.5605
1.78125
6.77135
6.00748
6.50321
6.20855
4.12273
6.82467
5.9475
5.68609
6.0953
3.96827
4.89917
6.47525
1734.54
6.78479
6.15309
6.32905
6.47828
6.6137
4.3989
6.51429
3.23009
5.79279
4.84201
6.51994
6.02495
6.16771
6.00034
5.43457
5.50791
6.30411
6.36589
6.75603
6.59989
6.42247
1793.58
5.30559
6.07725
1708.2
6.5504
1.04714
6.79588
6.25803
5.63203
6.00504
4.06278
6.57302
6.68274
4.6707
6.18637
6.7791
5.77894
6.23209
6.76386
6.62835
6.79703
5.23174
6.41939
6.31973
6.15393
6.60249
1796.78
6.78411
6.83279
6.54727
6.2252
5.6947
1291.79
4.07025
6.2021
4.37674
6.07163
6.05952
-37.8241
-26.9029
6.27006
5.56805
5.10629
6.52147
6.03554
1762.46
6.64744
6.33711
6.76837
6.39506
6.71847
6.27624
6.20473
6.21832
6.47133
4.63291
6.48539
0.880898
1773.36
6.50118
6.06665
6.39627
5.04313
6.72151
6.63617
6.40728
1770.24
1756.62
6.78478
1701.5
6.25513
1724.65
6.22251
15.5208
6.44571
5.86519
4.90056
6.69463
6.07488
6.76424
6.57366
6.12848
6.75394
6.12303
6.76145
1751.12
6.58467
5.68856
5.44747
6.4727
6.75884
6.12218
6.6352
6.20563
4.20261
6.49445
-34.981
4.8067
4.34024
5.96282
6.72798
5.61658
1738.2
6.08718
6.25811
5.55766
6.56104
6.63205
4.853
5.38375
6.04357
6.71072
6.29837
6.55178
5.46507
6.73479
1726.98
4.4063
5.80643
1764.08
6.14812
6.51362
6.54391
4.20427
5.27184
1752.7
6.35356
6.35761
6.11978
6.2617
6.18261
6.71745
5.86762
6.231
6.65298
5.71881
6.17519
6.39789
5.21087
6.60402
6.34399
6.48993
6.12378
6.03721
4.65331
6.42555
6.73598
6.6712
6.73745
4.19175
6.27543
5.09006
1386.25
1.5666
6.31355
6.72323
6.72958
1442.68
6.26659
6.71238
6.64802
6.19413
6.29751
6.44493
6.44504
6.16236
4.37973
6.06723
6.61414
6.24673
6.49029
6.22769
4.24791
6.31738
5.7703
6.59312
4.26106
6.23078
6.54958
6.21949
6.7205
6.16119
6.14364
5.03679
6.34776
6.23349
6.50013
6.54858
1271.18
4.61566
6.21151
835.65
6.68012
1749.32
6.40776
6.2153
4.19752
6.63434
6.6917
6.5279
2.0804
6.42158
6.37301
6.59729
4.8752
1348.32
5.82806
5.55655
5.50312
5.40502
6.12263
6.24186
5.95084
6.16702
4.36462
6.46861
6.25822
6.7135
6.67476
5.65014
6.20074
6.70458
5.69789
6.71033
1717.92
5.34973
6.06028
6.2483
6.48605
6.19731
6.71082
6.52565
4.32721
4.23384
5.98509
6.63365
1780.51
5.24494
6.17398
4.82965
6.66147
6.34636
6.68552
6.57514
6.14564
6.69627
6.29166
6.5788
5.78595
6.24899
6.32688
6.67233
6.46431
4.41113
4.57081
5.19095
6.12826
6.28803
6.61692
6.61424
6.55939
6.19407
6.04766
6.26336
6.6857
1797.18
6.37501
6.327
1090.23
6.24085
-34.2509
6.19629
6.18879
1756.11
5.05945
6.42924
5.71347
6.23237
6.52112
5.78517
6.65663
6.69182
6.22781
4.60358
6.48274
4.31798
6.69368
5.9055
1736.1
6.61666
6.68148
6.37807
-34.6147
6.07412
6.67296
6.25799
6.53173
6.68981
6.42362
6.64132
1786.11
1774.16
6.32315
5.26244
6.50121
5.00784
6.57355
6.36535
4.37722
6.29472
6.30374
6.26417
6.20506
6.68467
6.21977
6.27636
6.2064
6.4145
5.63335
5.97342
3.09741
5.51164
1791.72
6.60655
6.21928
6.12276
6.601
5.46334
5.37218
6.58422
6.64949
6.46517
6.66702
5.64114
5.83584
5.59643
612.627
4.56237
4.81639
6.55019
6.51322
6.46359
383.068
1714.92
1757.95
6.26739
5.3214
6.35527
6.25549
6.24925
6.55564
3.52113
1756.95
6.65638
6.25643
6.00257
5.95846
6.40216
6.14404
6.67651
5.2136
6.66772
6.67267
6.53231
6.5905
5.72057
6.22113
6.6298
3.69758
8.51962
6.67565
5.76061
6.44365
6.34562
6.65343
6.26271
6.3864
1773.33
6.22458
4.76819
5.90219
6.66743
5.15915
6.24131
6.0562
6.2396
6.61657
6.43183
6.64305
6.49806
6.27678
6.18303
6.4776
6.66118
10.5466
6.57331
6.52028
1511.63
6.25981
6.31398
5.0036
6.60206
6.07984
6.61498
6.55747
6.23984
4.31202
1680.22
6.64323
6.55765
5.93365
3.4103
6.4798
6.23735
6.37678
6.58778
6.28598
4.38736
6.6596
6.49026
6.27717
6.65082
6.3135
6.66185
6.2386
6.36204
6.4223
6.38657
7.82092
6.24661
6.63342
5.59671
6.41887
6.66085
6.64389
6.26369
6.12339
5.55505
5.47754
-34.6282
6.52709
6.46269
4.32626
4.95123
6.20037
6.40634
5.99093
6.50481
6.34004
6.65836
5.43216
5.34022
6.2547
6.54263
6.14268
6.33647
6.25825
6.27275
6.61048
4.42144
6.64809
6.57447
1714.65
736.689
6.51066
5.2883
6.01611
6.25484
5.86966
5.66985
6.24315
6.44551
1764.6
6.59046
6.62655
6.2998
4.46427
6.64177
462.32
6.25168
6.57719
5.17012
6.59933
5.70727
6.31311
6.28484
6.25174
5.89262
6.29212
6.55085
1799.94
4.23876
6.34132
6.38672
6.27794
6.06337
6.29681
6.60249
6.39346
6.27298
6.62535
6.6412
6.64991
4.55803
6.43357
6.64559
1787.21
1733.01
6.17924
1765.13
6.6503
6.47437
6.27296
6.42725
5.92847
6.53635
6.35713
6.47961
6.51296
6.6467
1809.24
5.12002
6.23285
6.54716
5.81016
6.2529
6.08448
551.835
1750.29
6.12385
6.6168
5.56238
925.196
180.91
6.63003
6.64299
6.57564
1757.2
5.95525
6.25495
6.2762
6.43857
4.7486
5.5227
6.63298
6.62185
5.62923
6.19591
6.24784
6.14192
6.32722
6.46288
6.38433
5.77603
6.30279
6.50869
6.26201
6.26384
6.00501
6.5977
6.56944
6.42245
1768.8
6.59129
6.46217
6.28308
6.50066
6.39283
1793.22
5.44959
1808.33
1715.55
6.55698
6.34948
6.5356
6.28388
1813.46
6.62716
6.27535
6.28944
6.56544
6.35048
5.66482
6.63668
5.40382
6.26201
6.2835
5.30242
6.6403
6.02717
6.6392
6.3004
6.26304
6.24137
6.4314
6.22769
6.27381
6.33046
4.9479
6.62926
6.06867
6.53294
6.63962
6.29491
6.58927
6.37485
1794.36
6.49362
6.27734
6.17645
6.08785
6.60148
6.61316
910.603
6.62357
6.63463
1782.09
5.87117
6.34001
5.2389
6.41469
4.53798
6.32319
6.12421
3.25773
4.44331
5.74674
6.63136
5.59721
3.29281
6.2819
6.27667
6.51961
6.55631
6.19262
6.38289
6.32238
6.6067
6.58325
1691.95
6.2428
5.63141
6.28654
6.46527
5.8984
6.29499
6.57285
6.61034
6.26765
5.53578
6.26567
5.9487
4.39465
4.45801
1750.78
6.30898
6.28957
6.27725
6.55256
6.36639
1760.45
6.44999
6.62232
6.14131
5.72815
6.40482
4.43323
6.3329
6.07243
5.14861
459.698
462.382
6.26971
1813.42
6.31585
6.27054
6.6313
6.01491
6.6268
6.42105
6.03478
6.54101
1537.3
6.59309
1713.7
1723.74
5.9719
6.09017
1829.15
4.51123
6.62288
6.28304
6.63254
6.36555
6.28277
6.40054
6.49446
6.2772
1814.68
1824.69
6.43868
5.81955
1813.16
6.40576
6.63191
1784.96
6.47735
6.37628
6.51397
5.49647
1888.77
6.54649
6.61793
1407.13
6.36152
6.27258
1567.56
4.69128
6.57363
6.60741
6.27123
6.4807
6.61388
6.22333
6.63075
6.12419
6.51912
5.284
6.56786
6.33587
6.17409
1815.1
6.4548
5.60577
6.58446
6.27264
1007.97
6.27609
1830.85
6.59476
5.75998
5.68983
6.55809
6.62615
6.44087
6.28254
6.41425
6.50695
4.89121
5.57252
6.02212
6.28519
6.31564
5.42603
6.40087
6.07474
6.04013
6.53948
6.31342
6.59288
6.621
6.29785
6.4841
5.84735
5.21686
6.23911
5.65943
5.98394
6.60975
6.1418
6.60996
6.6236
6.28786
6.57932
6.62356
6.19122
6.52891
1790.37
6.59969
5.37496
6.61466
5.8972
6.57126
6.09252
1832.01
5.96376
1845.55
5.92043
6.284
6.47161
1780.48
6.2932
6.37694
5.08303
6.62611
1854.9
6.5876
6.44797
1850.34
6.2817
6.27824
6.55904
6.55584
5.68847
5.72004
1829.87
5.63655
5.66439
6.2828
6.5091
6.27713
6.56858
6.59824
6.43591
6.58102
6.62665
6.27667
5.51523
6.6189
6.54685
6.60335
5.5868
6.6107
1846.22
6.35586
6.02674
1812.71
6.38916
6.53
6.42625
6.56109
5.97448
6.46475
6.49808
6.41451
6.50204
6.57816
5.64729
6.28115
6.53593
6.56487
6.61416
5.57861
6.57207
5.99237
6.62558
6.58812
6.04433
1772.7
1640.95
1418.54
6.58801
6.61861
6.47739
6.54709
6.14338
6.59331
1871.23
6.24013
6.60126
6.56071
6.19272
6.28194
6.27885
1837.73
6.60504
6.09428
6.52045
6.28207
5.62254
6.58512
6.57123
5.69007
6.60509
6.32827
6.30809
6.4667
6.53897
6.29419
5.93675
6.62293
6.58023
6.62478
1839.14
6.32919
6.36289
6.44809
6.28038
5.55579
5.91678
6.56571
6.55394
5.80205
5.67818
6.61051
5.85139
6.5929
6.28583
5.8116
5.69792
6.62036
6.28545
5.71086
6.61611
5.87422
1752.9
1793.7
1834.43
5.71315
6.59688
6.57908
6.55567
6.40168
6.5415
1869.12
6.28614
5.40519
6.57467
5.87495
5.93079
6.60279
5.73527
6.56677
6.04624
6.61304
5.25349
5.35943
5.47595
6.28179
6.50264
5.6443
6.58612
5.73894
6.62194
5.94813
6.52393
5.98138
1859.57
5.83405
6.6218
6.28086
6.58995
6.12511
6.28633
5.83895
6.56232
6.55012
6.2726
6.59585
6.43654
6.47747
5.89432
5.76465
6.22237
5.69742
6.60569
6.17447
5.77481
6.57517
1820.09
6.58468
5.99833
6.58123
5.57983
6.61636
5.8
6.28385
6.28242
5.85745
1855.81
6.49332
5.80901
5.73381
5.75251
6.5717
6.53477
6.07642
5.75266
5.89196
6.59886
5.77284
6.5901
5.72374
1875.03
1880.47
6.58121
5.77839
5.73916
6.28268
1239.89
6.55576
6.46737
5.85869
5.93982
6.56688
5.82664
6.62292
6.62315
6.57862
6.58578
6.59302
6.6099
5.62062
5.6786
6.62242
5.74012
6.54158
6.57527
6.58523
6.28213
6.58848
5.83137
6.60341
1852.74
1839.78
5.90841
6.58338
5.76841
6.0004
6.0292
5.87401
5.78538
6.51593
5.78353
6.61183
5.77134
5.80195
6.58125
5.72563
6.59748
5.50337
6.61774
6.56314
5.75975
6.55095
6.50272
6.49406
5.81003
5.55048
5.84547
5.77299
6.59254
5.95568
6.57248
6.58509
6.58889
6.61487
6.60885
6.61094
5.90299
6.28998
5.87168
6.57932
6.58634
5.82299
5.78643
5.7625
5.94353
5.9578
5.91939
6.52401
5.79595
6.5356
6.58394
5.79484
5.84638
5.79444
6.60557
5.78944
6.58658
6.58708
6.58787
5.82722
5.81389
6.59961
5.91735
5.80641
6.59446
5.8068
5.80983
6.59051
5.46491
5.82216
5.81828
5.81303
5.8052
5.82065
1855.21
1865.24
5.8107
1864.54
5.80998
1873.97
6.59898
6.59709
6.51673
6.60272
6.60483
6.61666
6.59245
6.59396
6.62108
6.61989
5.85846
5.85026
5.98459
5.83116
5.83714
5.87564
5.88603
5.8114
6.58709
6.58734
6.58733
6.58779
6.59014
6.58915
5.90694
5.81098
3.30692
5.83568
5.88419
5.85686
6.28948
6.2921
1786.17
716.727
1742.87
6.28981
6.28642
5.69543
6.30976
6.28587
6.29085
1574.73
3.24919
1730.03
1748.56
6.28879
1675.05
5.88052
1086.64
1777.2
5.17037
1406.49
6.32626
1176.74
1762.03
6.58234
6.56576
1020.24
999.773
-195.575
923.091
748.478
1083.79
1777.61
1719.68
1684.17
1455.15
1188.91
1221.89
1585.48
525.457
5.94472
1715.81
4.13364
3.61775
1697.87
1744.81
981.618
1376.15
3.2963
1022.01
1739.31
1826.46
1772.73
1144.14
975.582
865.613
892.251
869.77
1048.2
1959.89
1905.42
1787.64
104.243
755.959
3.09923
538.495
1167.51
2.88992
820.801
150.45
1480.02
6.50536
1204.43
11.9896
6.34674
1195.65
453.975
1386.72
11.7764
1780.04
4.292
7.3007
5.80637
6.56418
1682.56
4.39334
1632.43
263.751
1616.19
5.99512
5.37708
4.49144
469.232
172.715
1950.64
5.11616
3.91479
540.615
4.42927
5.44898
480.907
5.48616
4.1886
1413.11
5.72595
1317.59
620.523
615.489
-610.296
5.60815
1769.54
1625.05
4.18146
)
;

boundaryField
{
    patch0
    {
        type            fixedFluxPressure;
        gradient        uniform 0;
        value           nonuniform List<scalar> 
4010
(
1.76496
1.76496
3.00978
3.00978
0.504475
0.504475
0.160159
0.160159
3.40525
3.40525
-0.709661
-0.709661
-0.490353
-0.490353
-0.928007
-0.928007
-0.501412
-0.501412
1.25045
1.25045
3.41534
3.41534
1.12921
1.12921
97.6024
97.6024
7.9762
7.9762
6.13096
6.13096
6.17479
6.17479
7.51261
7.51261
5.2306
5.2306
131.801
131.801
6.89277
6.89277
1011.92
1011.92
6.74159
6.74159
5.92013
5.92013
3.87144
3.87144
6.5894
6.5894
7.29836
7.29836
7.27257
7.27257
2.03039
2.03039
3.2581
3.2581
1486.72
1486.72
5.77914
5.77914
6.90291
6.90291
-2.01722
-2.01722
6.3261
6.3261
2.3201
2.3201
5.932
5.932
8.30845
8.30845
3.58799
3.58799
1662.38
1662.38
5.77237
5.77237
7.98322
7.98322
583.751
583.751
7.50534
7.50534
5.93981
5.93981
262.549
262.549
219.799
219.799
373.158
373.158
0.225851
0.225851
760.315
760.315
729.036
729.036
6.12329
6.12329
586.938
586.938
5.29673
5.29673
6.15456
6.15456
67.177
67.177
1.86275
1.86275
647.273
647.273
86.8343
86.8343
0.661234
0.661234
6.74981
6.74981
5.89064
5.89064
6.3017
6.3017
5.93059
5.93059
1720.54
1720.54
6.27138
6.27138
1.02362
1.02362
6.49829
6.49829
5.75909
5.75909
87.0611
87.0611
6.02013
6.02013
-25.792
-25.792
6.33917
6.33917
1707.57
1707.57
103.653
103.653
3.60585
3.60585
-32.7833
-32.7833
1.75369
1.75369
3.65537
3.65537
3.00995
3.00995
5.95289
5.95289
3.85424
3.85424
7.08309
7.08309
1680.31
1680.31
1045.43
1045.43
-2.25471
-2.25471
5.73904
5.73904
1.62844
1.62844
6.13788
6.13788
508.628
508.628
223.323
223.323
6.56611
6.56611
7.05274
7.05274
112.298
112.298
13.4347
13.4347
1001.08
1001.08
6.35218
6.35218
1.71569
1.71569
3.64405
3.64405
6.79222
6.79222
-28.5244
-28.5244
0.698011
0.698011
1116.37
1116.37
6.76902
6.76902
6.95388
6.95388
-25.8706
-25.8706
3.44272
3.44272
11.0346
11.0346
-31.321
-31.321
6.75822
6.75822
101.549
101.549
1.46893
1.46893
115.125
115.125
2.79625
2.79625
1666.48
1666.48
3.63157
3.63157
956.034
956.034
0.0903224
0.0903224
6.1334
6.1334
5.91259
5.91259
2.6028
2.6028
-4.6744
-4.6744
1125.71
1125.71
836.179
836.179
710.234
710.234
6.43596
6.43596
-23.0501
-23.0501
-34.5668
-34.5668
3.65141
3.65141
108.761
108.761
1497.35
1497.35
1.8586
1.8586
-0.420884
-0.420884
-33.1109
-33.1109
1591.1
1591.1
1162.02
1162.02
49.0574
49.0574
2.00183
2.00183
36.5407
36.5407
4.25544
4.25544
2.33765
2.33765
1.16367
1.16367
6.41207
6.41207
956.168
956.168
956.168
520.328
520.328
520.328
-1.36072
-1.36072
1604.92
1604.92
-30.0617
-30.0617
-27.7295
-27.7295
6.71794
6.71794
6.01116
6.01116
1746.03
1746.03
1173.32
1173.32
1173.32
-38.4662
-38.4662
-1.29094
-1.29094
-1.52971
-1.52971
-22.0151
-22.0151
1462.36
1462.36
1.93524
1.93524
1.53941
1.53941
1714.08
1714.08
1398.05
1398.05
-35.6722
-35.6722
-2.01561
-2.01561
1089.26
1089.26
1754.79
1754.79
7.74343
7.74343
-15.5237
-15.5237
1545.26
1545.26
2.69471
2.69471
110.929
110.929
5.30277
5.30277
-2.30356
-2.30356
3.53506
3.53506
6.90384
6.90384
0.955794
0.955794
234.484
234.484
1678.41
1678.41
-26.744
-26.744
5.88169
5.88169
-1.80481
-1.80481
138.069
138.069
6.02098
6.02098
3.57382
3.57382
-10.9539
-10.9539
674.286
674.286
131.633
131.633
-40.9496
-40.9496
56.8507
56.8507
2.4472
2.4472
163.846
163.846
-28.9265
-28.9265
-2.23936
-2.23936
1.97973
1.97973
-2.03541
-2.03541
1.61505
1.61505
1092.83
1092.83
1092.83
1.06844
1.06844
455.326
455.326
3.52707
3.52707
1232.83
1232.83
350.485
350.485
3.07365
3.07365
89.0393
89.0393
1.92252
1.92252
4.26361
4.26361
644.302
644.302
0.296135
0.296135
576.5
576.5
-28.9818
-28.9818
-29.7179
-29.7179
-29.7179
924.493
924.493
123.761
123.761
5.21093
5.21093
1.59628
1.59628
-5.49906
-5.49906
3.53875
3.53875
6.72529
6.72529
-24.8265
-24.8265
0.504036
0.504036
3.65393
3.65393
-19.0226
-19.0226
1453.02
1453.02
75.4683
75.4683
5.49018
5.49018
5.65814
5.65814
1.99871
1.99871
1.79433
1.79433
3.65834
3.65834
4.8961
4.8961
1238.41
1238.41
202.847
202.847
6.64685
6.64685
105.317
105.317
-27.5408
-27.5408
7.24306
7.24306
1790.32
1790.32
1790.32
5.15391
5.15391
3.4748
3.4748
107.088
107.088
933.608
933.608
933.608
6.00269
6.00269
996.74
996.74
4.86525
4.86525
1070.86
1070.86
1208.07
1208.07
645.137
645.137
8.16572
8.16572
1.01967
1.01967
3.69174
3.69174
3.6856
3.6856
642.666
642.666
1037.94
1037.94
5.93404
5.93404
127.594
127.594
2.67591
2.67591
5.66307
5.66307
7.24985
7.24985
984.04
984.04
-18.1037
-18.1037
10.4627
10.4627
-15.6605
-15.6605
51.6267
51.6267
6.8699
6.8699
3.41185
3.41185
6.93272
6.93272
3.84509
3.84509
13.2206
13.2206
3.6643
3.6643
-36.1276
-36.1276
1401.97
1401.97
499.668
499.668
1726.61
1726.61
201.176
201.176
1024.83
1024.83
6.63932
6.63932
4.05689
4.05689
9.05277
9.05277
7.61485
7.61485
105.686
105.686
1263.79
1263.79
680.519
680.519
1234.24
1234.24
1234.24
6.6091
6.6091
6.75728
6.75728
458.178
458.178
31.9126
31.9126
2.31023
2.31023
1187.84
1187.84
6.14738
6.14738
992.711
992.711
35.9879
35.9879
1146.91
1146.91
6.70436
6.70436
5.37277
5.37277
778.611
778.611
1748.62
1748.62
5.81131
5.81131
1134.14
1134.14
3.69712
3.69712
5.55576
5.55576
1325.86
1325.86
1325.86
108.705
108.705
4.97412
4.97412
6.68908
6.68908
11.5998
11.5998
128.954
128.954
7.92075
7.92075
4.72866
4.72866
995.959
995.959
611.64
611.64
1261.95
1261.95
6.06055
6.06055
6.82791
6.82791
5.68507
5.68507
2.48732
2.48732
8.60062
8.60062
-10.088
-10.088
11.8003
11.8003
7.42433
7.42433
-2.42296
-2.42296
1.63726
1.63726
68.689
68.689
82.7214
82.7214
1739.6
1739.6
7.73637
7.73637
3.95723
3.95723
931.361
931.361
711.801
711.801
0.772156
0.772156
2.36262
2.36262
1263.49
1263.49
6.50197
6.50197
5.76574
5.76574
11.7236
11.7236
3.7103
3.7103
6.77047
6.77047
6.68303
6.68303
8.71083
8.71083
6.91131
6.91131
69.705
69.705
3.95359
3.95359
1707.29
1707.29
6.28962
6.28962
1172.03
1172.03
5.83949
5.83949
6.26862
6.26862
426.913
426.913
6.39924
6.39924
6.12384
6.12384
9.84838
9.84838
7.08166
7.08166
1385.26
1385.26
1791.07
1791.07
5.35755
5.35755
1255.8
1255.8
3.79136
3.79136
1149.05
1149.05
12.4146
12.4146
566.043
566.043
6.35779
6.35779
6.70326
6.70326
5.62242
5.62242
5.18889
5.18889
6.58711
6.58711
6.95113
6.95113
30.9989
30.9989
6.13007
6.13007
6.37329
6.37329
6.96321
6.96321
7.92829
7.92829
4.8841
4.8841
-1.89213
-1.89213
59.6972
59.6972
5.91867
5.91867
7.00165
7.00165
-33.5291
-33.5291
5.73821
5.73821
5.95622
5.95622
6.7431
6.7431
6.3474
6.3474
6.28641
6.28641
3.83412
3.83412
1047.08
1047.08
3.96976
3.96976
159.017
159.017
4.71241
4.71241
3.74135
3.74135
6.54521
6.54521
7.09073
7.09073
18.9221
18.9221
1757.26
1757.26
6.00734
6.00734
696.339
696.339
6.46913
6.46913
7.21081
7.21081
-36.8676
-36.8676
-36.8676
7.05342
7.05342
6.57487
6.57487
2.95181
2.95181
6.17658
6.17658
1598.78
1598.78
3.80662
3.80662
519.594
519.594
-35.4519
-35.4519
1502.4
1502.4
1502.4
6.65482
6.65482
4.49255
4.49255
6.43077
6.43077
96.649
96.649
7.06949
7.06949
6.732
6.732
6.02829
6.02829
12.6233
12.6233
12.5072
12.5072
6.85587
6.85587
6.6908
6.6908
4.27306
4.27306
5.57085
5.57085
5.6748
5.6748
0.991314
0.991314
5.45237
5.45237
6.95685
6.95685
4.39313
4.39313
1044.78
1044.78
6.90603
6.90603
5.2264
5.2264
2.78952
2.78952
1673.68
1673.68
6.34223
6.34223
6.89174
6.89174
6.61302
6.61302
4.24497
4.24497
6.80913
6.80913
6.06971
6.06971
7.08742
7.08742
6.95113
6.95113
5.08813
5.08813
6.42264
6.42264
6.81267
6.81267
6.82617
6.82617
357.133
357.133
6.99986
6.99986
3.91258
3.91258
1760.46
1760.46
6.35311
6.35311
1554.46
1554.46
1554.46
6.69004
6.69004
3.83044
3.83044
148.906
148.906
6.53133
6.53133
5.95498
5.95498
6.27789
6.27789
5.74549
5.74549
3.32106
3.32106
6.99851
6.99851
7.90806
7.90806
4.87121
4.87121
5.76227
5.76227
6.10484
6.10484
6.23383
6.23383
4.05821
4.05821
6.63332
6.63332
7.77396
7.77396
6.05169
6.05169
144.964
144.964
6.49788
6.49788
6.4255
6.4255
6.82455
6.82455
6.6004
6.6004
136.632
136.632
6.97888
6.97888
6.18581
6.18581
40.8207
40.8207
4.75829
4.75829
5.10707
5.10707
4.05877
4.05877
1718.76
1718.76
9.52406
9.52406
6.31543
6.31543
6.13052
6.13052
6.69875
6.69875
6.76379
6.76379
6.67324
6.67324
6.38977
6.38977
6.53634
6.53634
6.91809
6.91809
6.90529
6.90529
5.91621
5.91621
6.81372
6.81372
2.74358
2.74358
6.77785
6.77785
6.84641
6.84641
6.18879
6.18879
0.666336
0.666336
5.44395
5.44395
4.58665
4.58665
6.25478
6.25478
6.59023
6.59023
6.93284
6.93284
1737.89
1737.89
5.33761
5.33761
5.84983
5.84983
234.378
234.378
6.78256
6.78256
6.70649
6.70649
6.66058
6.66058
5.62051
5.62051
6.93982
6.93982
6.38579
6.38579
5.15568
5.15568
3.91396
3.91396
4.53768
4.53768
6.556
6.556
6.06503
6.06503
6.48862
6.48862
6.45569
6.45569
6.69962
6.69962
7.64283
7.64283
6.64558
6.64558
6.16138
6.16138
6.18456
6.18456
5.70447
5.70447
4.35421
4.35421
5.04862
5.04862
6.92353
6.92353
6.94818
6.94818
3.8421
3.8421
5.99057
5.99057
6.92507
6.92507
6.66789
6.66789
6.14926
6.14926
6.5939
6.5939
6.33857
6.33857
5.83594
5.83594
5.87017
5.87017
6.39226
6.39226
6.77913
6.77913
4.99159
4.99159
6.17351
6.17351
6.8499
6.8499
6.55581
6.55581
1735.59
1735.59
6.04991
6.04991
3.93239
3.93239
4.88303
4.88303
6.82679
6.82679
1123.5
1123.5
1732.59
1732.59
6.32543
6.32543
3.71236
3.71236
6.85183
6.85183
6.64057
6.64057
6.05011
6.05011
6.27955
6.27955
6.88288
6.88288
5.82546
5.82546
5.95088
5.95088
6.1427
6.1427
1752.22
1752.22
1712.11
1712.11
6.80044
6.80044
6.20222
6.20222
-35.916
-35.916
6.60955
6.60955
88.3024
88.3024
5.52914
5.52914
4.33571
4.33571
0.912059
0.912059
12.1647
12.1647
6.49131
6.49131
4.80194
4.80194
6.76422
6.76422
6.88301
6.88301
6.54193
6.54193
3.97217
3.97217
6.45223
6.45223
5.94189
5.94189
8.51606
8.51606
5.35896
5.35896
5.85888
5.85888
6.67859
6.67859
6.21469
6.21469
6.4302
6.4302
6.51154
6.51154
6.25777
6.25777
6.02135
6.02135
5.51129
5.51129
6.15637
6.15637
4.65101
4.65101
1714.22
1714.22
6.85972
6.85972
6.27152
6.27152
1532.69
1532.69
6.22862
6.22862
6.12596
6.12596
5.26894
5.26894
6.4221
6.4221
3.19177
3.19177
6.36024
6.36024
6.1746
6.1746
6.32409
6.32409
5.59256
5.59256
6.6642
6.6642
1743.56
1743.56
6.40771
6.40771
6.30411
6.30411
6.89785
6.89785
4.12746
4.12746
5.50328
5.50328
6.19245
6.19245
6.83043
6.83043
5.85475
5.85475
5.91012
5.91012
3.07302
3.07302
6.62259
6.62259
6.29212
6.29212
6.90918
6.90918
5.73527
5.73527
6.27811
6.27811
1743.25
1743.25
5.12222
5.12222
4.60628
4.60628
0.490819
0.490819
6.75475
6.75475
6.57507
6.57507
3.75626
3.75626
6.02708
6.02708
6.23535
6.23535
6.83486
6.83486
5.93042
5.93042
6.12544
6.12544
6.81977
6.81977
3.41089
3.41089
6.14954
6.14954
6.3756
6.3756
6.30821
6.30821
6.83176
6.83176
1754.59
1754.59
6.7818
6.7818
5.0406
5.0406
6.65484
6.65484
6.58876
6.58876
6.51904
6.51904
6.83457
6.83457
6.6599
6.6599
5.7283
5.7283
6.71028
6.71028
5.86022
5.86022
6.75877
6.75877
5.51838
5.51838
6.25409
6.25409
6.5605
6.5605
1.78125
1.78125
6.77135
6.77135
6.00748
6.00748
6.50321
6.50321
6.20855
6.20855
4.12273
4.12273
6.82467
6.82467
5.9475
5.9475
5.68609
5.68609
6.0953
6.0953
3.96827
3.96827
4.89917
4.89917
6.47525
6.47525
1734.54
1734.54
6.78479
6.78479
6.15309
6.15309
6.32905
6.32905
6.47828
6.47828
6.6137
6.6137
4.3989
4.3989
6.51429
6.51429
3.23009
3.23009
5.79279
5.79279
4.84201
4.84201
6.51994
6.51994
6.02495
6.02495
6.16771
6.16771
6.00034
6.00034
5.43457
5.43457
5.50791
5.50791
6.30411
6.30411
6.36589
6.36589
6.75603
6.75603
6.59989
6.59989
6.42247
6.42247
1793.58
1793.58
5.30559
5.30559
6.07725
6.07725
1708.2
1708.2
6.5504
6.5504
1.04714
1.04714
6.79588
6.79588
6.25803
6.25803
5.63203
5.63203
6.00504
6.00504
4.06278
4.06278
6.57302
6.57302
6.68274
6.68274
4.6707
4.6707
6.18637
6.18637
6.7791
6.7791
5.77894
5.77894
6.23209
6.23209
6.76386
6.76386
6.62835
6.62835
6.79703
6.79703
5.23174
5.23174
6.41939
6.41939
6.31973
6.31973
6.15393
6.15393
6.60249
6.60249
1796.78
1796.78
6.78411
6.78411
6.83279
6.83279
6.54727
6.54727
6.2252
6.2252
5.6947
5.6947
1291.79
1291.79
4.07025
4.07025
6.2021
6.2021
4.37674
4.37674
6.07163
6.07163
6.05952
6.05952
-37.8241
-37.8241
-26.9029
-26.9029
-26.9029
6.27006
6.27006
5.56805
5.56805
5.10629
5.10629
6.52147
6.52147
6.03554
6.03554
1762.46
1762.46
6.64744
6.64744
6.33711
6.33711
6.76837
6.76837
6.39506
6.39506
6.71847
6.71847
6.27624
6.27624
6.20473
6.20473
6.21832
6.21832
6.47133
6.47133
4.63291
4.63291
6.48539
6.48539
0.880898
0.880898
1773.36
1773.36
6.50118
6.50118
6.06665
6.06665
6.39627
6.39627
5.04313
5.04313
6.72151
6.72151
6.63617
6.63617
6.40728
6.40728
1770.24
1770.24
1756.62
1756.62
6.78478
6.78478
1701.5
1701.5
6.25513
6.25513
1724.65
1724.65
6.22251
6.22251
15.5208
15.5208
6.44571
6.44571
5.86519
5.86519
4.90056
4.90056
6.69463
6.69463
6.07488
6.07488
6.76424
6.76424
6.57366
6.57366
6.12848
6.12848
6.75394
6.75394
6.12303
6.12303
6.76145
6.76145
1751.12
1751.12
6.58467
6.58467
5.68856
5.68856
5.44747
5.44747
6.4727
6.4727
6.75884
6.75884
6.12218
6.12218
6.6352
6.6352
6.20563
6.20563
4.20261
4.20261
6.49445
6.49445
-34.981
-34.981
4.8067
4.8067
4.34024
4.34024
5.96282
5.96282
6.72798
6.72798
5.61658
5.61658
1738.2
1738.2
6.08718
6.08718
6.25811
6.25811
5.55766
5.55766
6.56104
6.56104
6.63205
6.63205
4.853
4.853
5.38375
5.38375
6.04357
6.04357
6.71072
6.71072
6.29837
6.29837
6.55178
6.55178
5.46507
5.46507
6.73479
6.73479
1726.98
1726.98
4.4063
4.4063
5.80643
5.80643
1764.08
1764.08
6.14812
6.14812
6.51362
6.51362
6.54391
6.54391
4.20427
4.20427
5.27184
5.27184
1752.7
1752.7
6.35356
6.35356
6.35761
6.35761
6.11978
6.11978
6.2617
6.2617
6.18261
6.18261
6.71745
6.71745
5.86762
5.86762
6.231
6.231
6.65298
6.65298
5.71881
5.71881
6.17519
6.17519
6.39789
6.39789
5.21087
5.21087
6.60402
6.60402
6.34399
6.34399
6.48993
6.48993
6.12378
6.12378
6.03721
6.03721
4.65331
4.65331
6.42555
6.42555
6.73598
6.73598
6.6712
6.6712
6.73745
6.73745
4.19175
4.19175
6.27543
6.27543
5.09006
5.09006
1386.25
1386.25
1386.25
1.5666
1.5666
6.31355
6.31355
6.72323
6.72323
6.72958
6.72958
1442.68
1442.68
6.26659
6.26659
6.71238
6.71238
6.64802
6.64802
6.19413
6.19413
6.29751
6.29751
6.44493
6.44493
6.44504
6.44504
6.16236
6.16236
4.37973
4.37973
6.06723
6.06723
6.61414
6.61414
6.24673
6.24673
6.49029
6.49029
6.22769
6.22769
4.24791
4.24791
6.31738
6.31738
5.7703
5.7703
6.59312
6.59312