/*--------------------------------*- C++ -*----------------------------------*\
  =========                 |
  \\      /  F ield         | OpenFOAM: The Open Source CFD Toolbox
   \\    /   O peration     | Website:  https://openfoam.org
    \\  /    A nd           | Version:  8
     \\/     M anipulation  |
\*---------------------------------------------------------------------------*/
FoamFile
{
    version     2.0;
    format      ascii;
    class       surfaceScalarField;
    location    "0.25";
    object      phi;
}
// * * * * * * * * * * * * * * * * * * * * * * * * * * * * * * * * * * * * * //

dimensions      [0 3 -1 0 0 0 0];

internalField   nonuniform List<scalar> 
2805
(
-0.00294591
0.00019695
0.00274896
-0.000905345
-0.00204056
-0.00340136
0.00150259
0.00189877
-0.00160412
-0.00179725
-0.00172935
0.000824003
-0.00326746
0.00166335
-0.00128532
-0.00198215
-0.00193467
0.000649352
-0.000923489
-0.00101118
-0.000850424
0.00235301
-0.000182172
-0.000741317
-0.000295561
0.000113389
0.00304143
-0.00115566
-0.00188577
0.00150901
-0.00180457
-0.000631489
-0.000803601
0.00143509
-0.00114201
0.000510523
0.000894759
0.00214667
-0.000335542
0.00184455
-0.0012965
0.00149345
0.00123929
-0.00157483
0.00159433
0.00156009
-0.00315442
0.00206951
-0.00159169
-0.000477817
0.000837134
-8.18489e-05
-0.000755285
-0.000717012
0.0019563
0.000438701
0.00163081
-0.000170007
-0.00163647
0.00180647
0.00207407
-0.00224408
-0.000267169
-0.00159759
0.00186476
3.92508e-05
0.00137019
-0.00140944
-0.000237061
-0.000938621
0.00117568
-0.000396626
0.00123376
-0.00160394
0.00204264
-0.00236362
0.00279308
-0.000429458
0.00235812
-0.00146336
-0.00210981
0.00184264
-7.33452e-05
-8.50352e-06
0.00233619
-0.00394013
-0.00118862
0.00122787
0.000893033
-0.00113009
0.00196149
0.00293339
-0.000597196
0.00274982
-0.00115549
0.00129692
-0.000128276
-0.000627009
9.90014e-05
0.000670395
-0.000769397
0.0024783
0.000964537
-0.00344284
0.00162924
-0.00149823
-0.000131007
0.00101411
0.000365927
-0.00138004
0.00170571
-0.00276354
0.00105783
-0.0026199
0.0012286
0.0013913
0.000993682
0.000191574
-0.00118526
0.00159416
-0.00224771
0.000656019
-0.000507092
0.00150077
0.00290662
-0.00355726
0.000650634
-0.00296023
0.000332744
0.00111311
-0.000259781
0.00137289
-0.000887611
5.45073e-05
0.000833104
0.000362203
-0.000490479
-0.000402719
-0.000739293
0.000198311
0.000163893
-0.00113578
0.00070164
0.000434144
0.000587483
-0.00109457
-0.00171808
0.00208401
-0.000829624
0.00077007
5.95534e-05
-0.00056591
0.000492565
0.00384849
-0.00102084
0.00121241
-0.000691936
0.000418509
0.000273427
-0.001095
0.000692284
-0.000242751
-0.00141155
0.000472927
-0.000962713
-0.000448836
0.00268944
-0.00391287
0.00122343
0.000810195
-0.00252828
-0.00177388
0.000811165
-0.00175985
0.000379815
-0.000822528
-0.000852912
-0.00110498
0.0019579
0.00166708
0.000406988
-0.000872533
0.000392996
0.000479537
0.00206339
-0.000503301
0.000385339
-0.000223378
-0.000342532
-0.00185737
-0.00170191
0.000898313
-0.000914196
0.00052606
-0.001218
-0.000961788
0.000132164
0.00128743
0.000379659
0.00387116
0.00311264
-0.000777333
-0.0023353
-0.00121913
0.00174519
-0.000382453
0.000969936
-0.00189701
0.0027072
0.00128678
-0.00213969
-0.000354251
-0.00053336
0.00109213
0.00159731
-0.000658833
0.00152358
-0.000864744
0.000844255
0.000491194
-0.000845445
0.00110771
0.000179716
-7.58897e-05
0.00318853
-0.00235563
0.0016769
0.000678729
0.00284727
-0.00426304
0.00141577
-0.00410791
0.00403202
0.000662944
-0.000608437
0.00309383
-0.00337739
0.00148038
0.00122627
0.00262222
-0.00291797
0.000448732
-0.000949266
0.000500533
-0.000691839
-0.00106801
0.00102984
-0.00153314
0.00123994
0.00111016
-0.000599636
1.18142e-05
0.00100223
-0.00101404
-0.00322012
0.00121288
-0.000827546
-0.00344378
0.00327531
0.000168468
-0.00192581
-0.000188153
0.000233249
0.000536822
0.00242952
-0.00177872
-0.000650796
7.15798e-05
-0.00398445
0.000220904
-0.00199478
0.00432009
-0.00103439
0.00279273
-0.00175834
-0.00176079
-0.0016166
0.00437085
-0.000128307
-0.00206993
0.00219823
-0.0004238
0.00243842
0.00411945
-0.000930921
0.00164081
-0.000412944
-0.00198943
0.00127242
-0.00107533
0.000226638
-0.000861755
0.000943152
-0.000943152
-0.00259422
0.00259422
-0.000165299
0.00140524
-0.00172032
0.00068593
-0.00167839
0.00151064
1.6939e-05
0.000646005
0.000767122
-0.000755308
-2.26085e-06
0.000395257
-0.00344378
0.00192954
-0.00185796
0.00287441
0.00149643
0.00149805
-0.00082051
-0.000958215
0.00294211
0.000333196
-0.00127769
-0.00276854
0.00100775
-0.000594475
2.05717e-05
0.000573903
-0.000414415
-0.000534851
0.00109512
0.00427965
-0.0035156
7.18199e-05
-0.0004868
0.000346718
0.000140082
0.00346865
0.0005376
-0.00135811
0.000970101
0.00197201
-0.00144949
-0.00177063
0.00338917
0.000585436
0.00220764
0.000899236
0.000598813
-0.00171195
-0.000643681
0.000574349
-0.00273359
0.00256777
-0.0006124
-0.00195537
0.000761268
0.000472615
-0.000199188
0.000561421
-0.000569925
0.00310635
0.0011733
0.00273095
-0.00206232
-0.000668629
0.000289778
0.000820381
-0.00183436
0.000641481
0.00119288
-0.00143351
0.0019711
-0.00107792
-0.00168562
0.000175804
-0.00167404
0.000526218
0.00140332
-0.00194541
0.00265854
-0.000713123
-0.00306609
-0.00111441
0.000579557
-0.00103666
-0.000641723
0.00154859
-0.00196543
-0.000803114
0.00370516
0.000209939
-0.00164344
-0.0035156
-0.00197813
0.00187829
9.98484e-05
0.00177318
0.000794592
0.00279182
-0.00101865
0.0030497
-0.00225511
-0.00302368
0.00445195
-0.000983301
-0.000854578
0.00240317
0.000785536
0.00360395
0.000101213
0.00238438
-0.00185816
-0.000347326
-0.00206993
-0.00358801
7.24128e-05
0.00480494
-0.00172984
0.00223535
-0.000505512
-0.00133326
0.0015432
0.0006804
0.00189781
0.000555937
-0.000538998
-0.00164906
0.00274937
-0.00164231
-0.000352477
-0.00260728
-0.000114938
0.00309384
0.000318958
-0.0020488
0.00166185
0.00152393
0.000354359
-0.00222433
0.000258902
0.00130164
-0.00174011
0.000438472
0.000417179
-0.00175044
0.000741974
0.00230772
-0.00135902
-0.00219823
0.000509384
0.000302269
-0.000811653
0.000729505
0.000351893
0.00117203
2.05717e-05
0.00254252
-0.000307171
0.00386871
-0.00111934
0.00450766
-0.00141382
-0.00358801
0.000929738
-0.00063996
0.00311461
-0.00232908
0.0019005
0.000642026
0.000469467
0.00191491
0.0012443
-0.000573903
0.00139787
-0.00179204
0.00345389
-2.63918e-05
-0.0010232
-0.000410311
-0.000301147
-0.00239862
-0.00118939
-0.000553119
0.000970299
0.00382164
-0.00178276
-0.00128333
-0.00142422
0.00174318
0.00111059
0.00069588
-0.000861851
0.00334075
-0.00247889
-0.00362593
0.00207667
-0.00165482
0.00286422
-9.95712e-05
0.00067392
0.00087461
0.000635519
0.00140712
0.00101916
-0.00146799
0.00111365
-0.00226914
0.0010007
-0.00164438
0.00174575
0.000812145
0.00312819
-0.00238622
-0.000489061
-0.00123519
-0.0024109
0.00325736
-0.000846461
-0.000128019
0.000637402
0.000437142
-0.00154213
0.00164932
0.000866018
-0.000514126
0.00531807
0.00303723
-0.00181079
-0.00239862
-0.000659519
0.000100545
-0.000653664
0.000616858
-0.0014444
-0.00226037
3.60427e-05
-0.00279273
0.000394117
0.00390445
-0.00182778
0.00225276
0.00410343
-0.00123922
-0.000886856
-0.000243239
0.000179649
0.000686369
-0.00188115
0.00157398
-0.000141846
-0.000246699
0.000593416
0.000255167
-0.00167938
0.0027285
-0.00225903
-0.000641609
-0.000137973
0.00390425
0.00259091
-0.000690414
-8.96622e-06
0.000564904
-0.00196599
0.00361531
-0.00226259
0.00292433
-0.000661734
0.00278324
-0.00166959
0.00148267
0.00110825
0.000929847
-0.000884335
-0.000460294
-0.000178301
0.000945423
0.000350043
-0.000249498
0.00140054
-0.000664782
-0.000735761
-0.00258587
0.000897463
-0.00232345
0.00193846
0.00235299
-0.000780249
0.000132303
0.000666083
0.00246211
0.00507755
0.000308478
-0.000555176
-0.00232713
8.3054e-05
0.00177138
-0.001637
-0.00013438
0.00293316
0.000994766
-0.00182364
-0.00147507
-0.000785303
0.000708153
-0.000471857
0.000531411
0.000619353
0.00078119
0.00204049
0.00124464
-0.00159712
0.000806754
-0.000627105
0.000705085
0.0025154
-0.000162406
0.000154832
0.00019521
0.00383834
3.12665e-05
1.14725e-05
0.00175191
-0.000121108
0.000550261
0.00217824
0.00135639
-0.00110123
-0.000206846
0.00089913
0.000999655
-0.000462833
0.000571599
-0.000749901
0.000467911
0.000829011
-0.000415829
0.000555911
0.00200902
-0.00043504
0.00197812
0.00130616
-0.00171648
-0.00112988
0.00235973
-0.00122985
0.00335261
-0.00141415
0.00342318
-0.00249334
-0.000993223
0.00061077
0.000309726
0.000497029
-0.00141655
0.00127858
0.0013186
0.000955114
-0.000317712
0.00110343
0.00393955
0.00108713
0.00289563
-0.00222955
0.000686277
-0.000531444
0.00186173
0.00237523
-0.000892568
-0.00149337
-0.00294537
8.5921e-05
0.000843817
-0.000582959
0.000962619
0.000199188
-0.000387341
-6.01586e-05
0.000333865
0.00122337
0.000183748
0.000580418
0.000419237
0.000373572
-0.000338214
0.0020867
-0.000523073
0.00317026
0.00112038
0.00125485
-0.000223351
0.000483257
0.000527634
0.00377714
0.00136638
-0.000747023
0.00244106
0.000894436
-0.000363025
0.00100175
0.000859978
3.47589e-06
0.000692404
0.00110226
-0.00220065
0.000725576
0.000299494
-0.00085814
-0.000862183
0.00112025
-0.00176185
0.00259427
-0.002044
-0.000589549
0.000970101
0.000847007
-0.000141922
0.0022815
-0.00128529
-0.000996209
0.000431603
0.000832488
0.000772133
-0.000462408
0.000492046
0.000874329
0.00145218
0.00190043
0.00265781
0.000232448
0.000453828
0.000416132
-0.000425098
0.00195726
-0.00152012
0.00156093
-0.000282349
0.000609894
0.000392228
-0.00100212
-0.000343258
0.00112589
0.000437119
0.00245851
0.000739377
-0.000280906
0.000744813
0.000358618
0.00195349
-0.00063489
-0.00204234
-0.00054353
-0.00108704
0.000843804
0.00148725
-0.000400123
-0.000704215
0.000604644
0.000529296
0.000320261
6.54836e-05
0.00092423
-0.000743015
-0.000181215
0.00119696
0.000258404
0.00106092
0.00188659
-0.00127931
-0.00060728
0.00351779
0.000928561
0.000691367
-0.000136254
0.000663889
-0.000423224
0.000486041
0.000107375
0.000906078
-0.000486842
0.000320459
0.000451674
-0.000476874
0.00177933
0.000808112
-0.000324855
0.00115425
0.000740232
-0.000672723
-0.000510263
-0.00169038
0.00055615
0.0012652
0.0021265
-0.00100612
-0.00110808
0.00104793
0.000756416
0.000167814
-0.000299983
0.000673555
0.00168957
-0.0016583
0.00117617
-7.39067e-05
0.00209037
-0.0011929
1.10853e-06
0.00022216
0.0023721
0.000445087
0.000837079
-0.000405476
0.000699583
-0.000467134
0.00169
-0.00050452
0.000366955
0.000465532
0.00110583
-0.000613784
0.00112228
-0.000989973
0.000841202
0.00203166
-0.00159454
-2.69095e-05
-0.00102067
0.000777922
0.00243987
-0.000987692
0.000576807
0.000329272
-0.000461177
0.00076067
0.000756127
0.000440837
0.000504084
0.000350237
0.000776047
0.000725573
-0.00030839
0.000566794
0.000777786
-0.000691865
-0.00049364
0.000559124
-0.0020063
0.000216994
0.000111004
0.000362816
-0.00232541
0.00158431
-0.00045842
0.00206039
-0.00132102
0.000276824
0.000766257
-0.000236962
0.000355499
-0.000286379
0.000594857
0.000949419
4.61616e-05
0.00314988
0.000778596
0.000149965
0.00186577
-2.91699e-05
0.000445302
-0.00123916
0.000956807
7.40522e-05
0.000482098
0.00112293
-0.000382701
0.00184039
-0.000779468
0.00145131
-0.00178953
0.000540275
0.000441402
0.000499312
0.000771323
-0.000326236
0.000365847
0.000704689
0.00134825
0.00244613
0.000212378
0.000778158
-0.000610344
-0.00019123
0.00186943
-0.00154917
0.000834276
-3.21315e-05
0.00072115
0.0014974
-0.00172075
-0.00111757
0.00062709
0.000539584
0.000175802
0.000523781
-0.000641407
0.000642516
0.00105598
0.00138389
0.000509149
-0.00094743
0.000724051
0.00237988
-0.00215772
-0.000393264
0.000743501
0.000894665
0.00159117
0.000440491
0.000455212
0.000270361
0.000933568
-0.000157521
0.000365328
-0.000651707
-0.00136738
0.000544848
-0.000310543
0.00194634
-0.00110513
-0.000375738
0.000486742
-0.000885847
-0.000201196
-0.000208985
0.000910625
-0.000462793
0.000792065
0.00120759
-0.00171785
0.000191057
0.000663478
-0.000159394
0.00012071
0.000871206
-0.00050839
-0.000108864
0.000464362
-0.000337536
-0.000556147
0.00024459
-0.00142985
0.00020035
0.000394506
-0.000176868
0.000605177
0.000136751
-0.00457399
0.000426516
0.00065654
4.96954e-05
0.000211128
-0.00131765
0.00023643
0.000550868
0.000625318
2.01254e-05
0.000373235
0.000694097
-0.000252695
0.00127287
-0.00174974
0.000691732
-0.000325885
-0.00119612
0.000626199
-0.000178235
0.00155626
-0.000606841
0.000866648
0.000135577
0.000692264
1.24251e-05
-0.000326416
0.00060324
0.00103198
0.000367861
-0.00110621
1.16399e-05
-0.000740286
-0.00129456
0.000836137
-0.000241224
0.000812823
0.00193158
-0.00139131
-0.000543704
0.000207395
0.00033219
0.000260862
-2.5847e-05
0.000837992
-0.000861624
-0.000884998
0.000776792
0.000298468
-0.00226804
0.00172451
0.000280708
0.000639967
2.54925e-06
-0.000849661
-0.000143563
-0.000337751
0.000652087
-0.000476286
-0.000905702
0.000696717
0.000864725
-0.000355577
-0.000645934
0.00112814
0.00169915
-0.00172606
-8.44458e-05
0.000134141
-0.00066078
0.000419556
0.000477755
0.000889979
-0.000472073
-0.00201235
6.05643e-06
0.000534743
0.000533522
0.000258542
0.000654236
2.25087e-06
0.00237763
0.000847792
-0.000836152
0.000659114
0.000251511
0.00174983
-0.000915554
0.000382417
-0.00232883
0.000470975
0.000134202
0.000695599
0.000199066
0.000507429
-0.0011677
0.000611557
0.000207106
0.000665729
-0.00112837
0.000790835
-0.00044984
0.000662219
-0.000229153
0.00042021
-0.00182957
-0.000109934
0.000356335
-1.86878e-06
0.000235209
0.000686392
0.000409456
7.72861e-05
0.000644696
0.000405509
0.0006124
-0.000185884
0.000753236
-0.000202369
2.42719e-05
0.000348963
0.000312355
-0.000341525
-0.00100479
0.000813556
0.0004834
-5.40835e-05
0.00083187
0.000429581
0.000648766
-0.000512016
0.000359705
0.000187102
-0.000541504
0.000630565
-0.000262704
-0.000545353
0.000547902
-9.03768e-05
0.000356462
-0.000261723
-0.000866544
-0.00125631
0.000516027
-0.000447887
0.00185288
-0.00122756
0.00030468
-0.00012778
0.000270932
0.000206824
0.0001534
0.00069931
-0.000438448
0.00039766
0.000605103
-7.03598e-05
0.00183075
-0.00161962
0.00102901
-0.000812016
-0.000114808
0.000461571
0.00172758
-0.000577286
0.000697996
-0.00122937
0.000344369
-0.00115215
0.000680074
-0.00131154
0.000704696
-0.0004754
-0.000436978
0.000695521
0.000660897
-0.000380189
0.000405134
0.000722847
0.000621904
-0.000323436
0.000829922
-0.000272476
-0.000557446
0.00153175
-0.000754962
-0.000644756
0.000217564
0.000784251
-0.00206993
-0.000103079
0.000338288
0.000103413
-0.0010677
0.000729946
-0.000361312
0.00142908
-0.00173962
0.000402734
0.000448498
3.49024e-05
0.00186935
-0.00148694
-0.000619272
0.000509338
0.000294273
0.000125937
0.00178325
-0.00106531
0.000203689
0.000371559
0.000530488
-0.000124979
0.000245884
0.0006162
0.000690631
-0.000334296
0.000187294
-0.00071334
0.000344604
0.000437047
0.000392875
0.00011179
0.000244672
0.000564311
-0.000204606
0.000537271
1.06317e-05
-0.000254141
0.00105948
-0.000442618
-0.000320662
-0.000337732
0.000544838
0.000104687
-0.0011277
0.000586195
8.49324e-05
0.000387341
-0.000529187
-0.000927382
9.12301e-05
0.00135411
-0.00135186
0.00171168
-0.00106698
0.000301606
0.0006837
-0.000856357
0.000243128
0.000613229
0.000378138
0.000223919
0.000318614
0.000241714
4.4825e-06
0.000494708
0.000200813
-8.20015e-05
-0.000720945
0.000573578
-0.000268897
0.000249737
-0.000604651
0.0002812
0.000323451
-0.00195654
-0.000555911
0.000663286
0.000622473
-0.000224813
-0.000447625
0.000252183
0.000484118
0.000295497
0.000109637
-4.17235e-05
0.000354079
0.000739884
0.000197243
-0.00084457
0.000647327
0.00068413
-0.00111405
0.000912857
-0.000723692
8.69006e-05
-0.00094504
0.000156976
0.000875578
-0.000639148
0.000250142
0.000624109
-0.000678192
0.0018099
-0.00134833
0.0003304
-0.000969356
0.000608044
-1.03311e-05
0.000256215
0.000524574
-0.00012184
-0.00110761
0.000462849
-0.000186782
0.000312719
-0.000432366
0.000585766
0.000151507
-0.000258464
0.000652971
0.000495856
-0.000151252
-0.000374468
0.00132229
-0.000617598
0.000288177
0.000234341
-0.00052141
0.000320323
-0.000151441
0.00158556
-0.00167593
0.000645343
7.75036e-05
-0.000541976
-0.00249494
0.00151177
-0.00100434
6.13101e-06
0.000327909
4.36504e-05
0.00110464
-0.000374692
0.000616839
-0.000285656
0.000479187
-0.000468555
0.000629238
0.00029125
0.000410996
-3.28584e-05
0.00032296
0.000567332
-0.0012569
-0.000622647
0.00187955
0.000332391
0.00054495
-0.000441537
0.00126966
0.000161825
0.000156788
-0.00101098
0.000834109
0.00169205
-0.00158736
0.000717063
-0.000147853
0.000112472
0.000519336
-0.00021773
0.00029976
0.000870023
-0.00131791
0.00152854
-0.000912341
0.000358375
0.000604652
-0.000748215
0.000575184
-0.00038789
-0.000960294
0.000512669
-0.000266249
0.000467062
-0.00103867
0.00032533
0.000271462
-0.000715019
-0.000299021
-0.000524153
0.000442151
0.000207845
-0.00089383
0.000639689
-0.00057582
-0.000320341
0.000562055
0.000461558
0.000289157
0.000592741
-0.000368822
0.000250439
-0.00035225
-0.000525265
0.000610197
0.00172454
-0.0014748
0.000566481
-0.000314298
-9.85306e-05
0.000250038
0.000293349
3.70507e-05
0.000157684
-0.000154066
-0.00041706
0.00015081
0.00168875
-0.00120463
0.0020151
-0.0020151
-0.00274184
0.000748214
-0.000750083
0.000237573
7.5145e-05
5.24049e-05
0.000181936
0.000842135
0.000466017
1.31702e-05
0.000281224
0.00026049
-0.000342747
0.000499723
7.63955e-05
0.00138523
0.000522755
-0.000272613
-0.000930327
0.000408916
1.61129e-05
6.05016e-05
0.000424445
-0.000104122
-5.81361e-05
0.000520988
-0.000232811
-0.000923861
0.000202916
0.00108742
-0.00140808
0.000175682
-0.000176768
0.000273193
0.000960067
-8.44893e-05
-0.000553924
0.000402483
0.000461569
-0.000170319
-0.000598531
0.000209193
-0.000417658
0.000527167
0.000340421
0.000133647
0.000234638
-0.000563568
0.00032893
0.000451303
-0.000151543
-0.000153987
0.000137177
0.000654193
0.000529187
-0.00144338
-9.13422e-06
-0.000858899
0.000731119
0.000178591
0.000124315
0.000872625
0.000232043
-0.000273766
0.000184301
8.71615e-05
0.000243839
-0.000897293
0.000202414
0.000193233
0.000366244
-7.70873e-05
0.00167719
-0.00135423
0.00181079
-0.000751315
0.000750342
-0.000126233
0.00113059
-0.000501354
0.000512993
0.00133122
-0.000763886
-0.000415117
0.000527589
-0.000111773
-0.000607496
0.000613627
-0.000801797
0.000449547
-0.000134321
0.00020669
-0.000817587
9.38943e-05
-3.2414e-05
0.000190098
0.000221352
-0.000936101
0.000561408
-0.000873782
0.000297962
-0.000158222
0.000233368
-0.000296412
9.18152e-05
-9.81195e-05
0.000418876
0.00156271
-0.00156271
-0.000614671
0.000477506
-0.000227066
-0.000464866
0.000149522
0.000218492
0.00122704
-0.00138111
-0.000230489
2.70159e-06
0.000275071
-1.45806e-05
-0.000101092
0.00078851
-0.000687418
0.00151354
-0.00105198
-0.00027463
0.000202393
0.000263149
1.80754e-05
0.000214701
8.46065e-05
8.97248e-05
0.000119468
-0.000413737
0.000426907
0.000401047
-0.000127854
0.000859293
-0.000279992
0.000430802
0.000468611
-0.000392215
0.000254015
0.000204893
0.00134226
-0.00132615
-0.00159154
0.00315425
0.000308911
0.00024387
0.000750084
-0.000658854
0.000249957
0.000197983
0.000230728
-0.000779659
0.000362
-0.000483716
0.000544218
-0.000450822
0.000392686
0.000176886
0.000485167
-0.00035152
0.000533851
-0.000358169
-0.000161085
-0.000330111
-0.000337438
0.000461753
0.000240851
0.00041212
0.00156995
-0.00122953
0.000474753
-0.000296163
-0.00144598
-0.000602818
-0.000790592
0.000192061
0.000428228
-0.000184389
0.000573574
0.000186705
3.46464e-05
-9.43856e-05
0.000186201
-0.00049263
0.00137413
-0.00123695
0.000439522
-0.000232832
-0.000181043
9.57126e-05
-6.45654e-05
-2.47902e-05
0.000282744
-5.07014e-05
0.000194269
3.90983e-05
0.000509752
-0.000316518
0.000861349
4.3872e-05
0.000212345
-0.000470498
0.000358725
0.000385677
-0.000167185
1.25535e-05
0.000136968
0.000477053
-0.000274639
0.000172125
0.000840765
-0.000193438
-0.000812666
0.000664813
5.48736e-05
-7.97424e-05
0.000201162
0.000215714
0.000319183
-0.000104481
9.29519e-05
-3.8848e-05
0.000412324
1.45831e-05
0.000396007
0.000137844
0.000116016
0.000379563
0.000132022
-0.000734263
0.000269397
-3.8498e-05
9.33646e-05
0.000123233
-0.000543955
0.000546657
-0.00258768
0.00114079
-0.000627794
0.00052201
0.000318755
0.000246826
-4.88432e-05
-0.000372262
-0.000397819
0.000482426
0.000340847
-9.08905e-05
0.000376902
0.00130826
-0.000889379
0.000212993
-1.97519e-05
0.000143359
0.000106946
6.99404e-05
0.000966267
-0.000404859
-0.000643587
0.000517354
0.000464913
0.000937174
4.79845e-05
0.0013327
-0.0011303
0.000376329
-0.000145601
0.000152844
0.000438676
-0.000233783
-0.000928321
0.000539678
0.000146714
-7.78117e-05
0.000256273
0.000151583
-0.000704784
9.01128e-05
-0.000512722
0.000151998
-0.00063138
0.000601503
0.000141592
-0.000472969
0.000311884
2.63086e-07
-0.000781071
0.000160535
6.39335e-05
-4.70547e-05
0.000142767
0.0014055
-0.00109659
-0.000135996
0.000175094
5.0205e-05
0.00019194
0.000142344
-0.000801697
0.000505285
-0.000647693
0.000317582
0.000174953
-2.82815e-06
0.00182352
-0.000454453
8.99134e-05
-0.000228123
0.000164037
-0.000358979
0.000413853
0.000213526
-1.18159e-06
-0.000114244
0.000418816
-0.000325864
-8.1547e-05
-0.00026813
9.5742e-05
-0.000597532
0.000532966
3.91372e-05
9.28847e-05
0.000175977
-0.00066926
0.000176631
-0.000450532
0.000494404
-0.000399863
0.00012611
0.000404377
-0.000281144
0.000193774
0.000396094
-0.000194933
0.000658853
-0.000564958
-0.000337653
0.000431017
0.000372416
-0.000229057
0.000109078
0.00097302
-0.00105751
0.000324276
-0.000111283
0.000326674
-0.00017383
-0.00118779
0.000745173
0.000218465
-0.000460299
0.000241834
-0.000377189
0.000391772
0.00123636
-0.00102064
0.000191854
3.18939e-05
-0.000223325
0.000172624
0.000271528
-0.00011953
0.000407441
-0.000291426
0.00105751
-0.000184884
-0.000973019
0.000819032
0.000108239
3.3353e-05
0.000178675
-5.0875e-05
0.000162312
-0.000612396
0.000240133
5.98364e-05
0.000211877
-6.95324e-05
0.000361459
-0.000399957
-0.000319205
0.000184884
-9.00089e-05
0.000140214
-0.000891971
0.000403545
0.000488426
-0.000410511
0.000332699
0.000161475
1.3619e-05
0.000485668
-0.000347824
5.27582e-05
-0.000294814
0.000464415
-0.000312832
-0.000604651
0.000547396
0.000105411
0.000976132
-0.000511218
7.85132e-05
-1.54336e-05
0.000105347
0.000160293
-0.000148416
-0.00038414
0.000448074
0.000348338
0.00110805
-0.000731152
0.000219625
0.00035102
-0.00015908
9.12722e-05
-0.000549694
0.000106054
6.97889e-05
0.000436502
-0.000275966
-0.000495712
0.000495975
9.76168e-05
3.66636e-05
7.74508e-05
0.000218675
0.00119922
-0.000942943
0.000595957
-0.000419327
9.76984e-05
4.68768e-05
8.32352e-05
-0.000406962
0.000292718
0.000152268
-2.6158e-05
0.000549694
-0.000730738
4.99218e-05
5.9156e-05
9.23462e-05
-0.000819032
0.000720913
0.00106446
-0.000320495
-0.000743962
0.000156088
0.000102623
-1.30688e-06
-0.0003795
8.80745e-05
-0.00011062
-0.000830619
0.00042576
0.000279266
0.000403035
-0.000238998
0.000299718
0.000301785
0.00027373
-8.18758e-05
-2.95506e-05
0.000730738
-0.000769586
8.32748e-05
-0.00106446
2.58469e-05
0.00103861
-0.000559013
0.00015915
0.000162447
0.0010911
-0.000915127
8.27352e-05
-0.000325333
0.000376945
1.48273e-05
-4.90521e-05
-0.00031888
0.000106168
0.000305501
-0.000126826
-0.000762667
0.000569229
-0.000348763
0.00011659
0.00012367
-7.42628e-05
-0.000425392
0.000457285
-2.30119e-05
0.000226447
-5.38234e-05
0.000375937
-0.000316101
0.000564958
-0.000474846
9.62606e-05
9.15017e-06
-0.000118601
0.00013222
-5.66582e-05
0.000109416
0.000769586
-0.000721602
0.000353909
-0.000275396
2.16128e-05
-9.78546e-05
0.000696123
-0.000720913
-0.000342075
0.000411864
0.000839588
-0.000752687
4.86887e-05
0.000319504
-0.000228232
-0.000390324
0.000241908
0.000127069
-0.000536252
0.000485377
0.000146421
-0.000347146
0.000383809
0.000365536
-0.000203224
0.000275599
-0.000177982
1.70653e-06
7.57443e-05
0.000413772
-0.000514864
7.04616e-05
0.000392487
-0.000304412
0.000225707
-0.000128008
0.000690835
-0.000173481
-0.000509122
0.000214308
2.26823e-05
0.00213454
0.000780529
-0.000378797
0.000425674
7.01022e-05
0.000944654
-0.000596316
0.000529187
0.000175081
-1.47879e-05
6.08624e-05
0.000173473
-8.11269e-05
0.000711838
-4.02769e-05
-0.000229856
-9.76058e-05
0.000721602
-0.00062586
0.000213502
4.7138e-05
3.61368e-05
0.00014553
-0.000840033
0.000328814
5.04118e-05
-0.000368745
6.43325e-05
3.30663e-05
-0.000366161
0.000380988
0.000126538
2.87916e-05
0.000462712
0.000447173
-0.000341005
0.000325744
-0.000169656
0.000494981
-0.000335832
7.56546e-05
-0.000459561
0.000458254
0.00012227
-3.95345e-05
0.00026104
-9.8593e-05
3.78079e-05
0.000663286
0.000144571
4.41083e-05
7.84284e-05
4.73675e-05
0.00040161
-0.000277941
0.000614576
0.000995896
-0.000777221
0.000747752
-0.000225742
0.00175834
-0.000918752
0.000134214
0.000427676
-0.000311085
4.77242e-05
0.000475276
5.6288e-05
-0.000358186
0.000181943
0.000176243
0.000335922
-0.000384974
4.54646e-05
1.76483e-05
-0.000414273
-8.56497e-05
0.000107262
5.29526e-05
-0.000462784
0.000143904
-0.000373301
0.000299038
0.000944193
-0.00084157
-3.57215e-05
8.44102e-05
-2.27545e-06
2.37664e-05
0.000359757
-0.000382768
-0.000248476
0.000835715
-0.00145836
0.000371023
-0.000243954
0.000387981
-0.000323648
0.000474846
-0.00039161
8.66709e-05
0.00062586
-0.000519806
0.000135707
-3.48713e-06
-0.00041027
0.000432953
0.000285381
-0.00013896
4.00227e-05
0.000417497
-0.000339069
4.11426e-05
9.05251e-05
0.00100652
-0.00059275
0.00012252
-0.000116277
-0.000354834
0.000405246
1.54037e-05
-0.000181491
0.000127668
7.48986e-05
-4.79637e-06
0.000120919
5.82775e-06
5.50346e-05
0.000253834
-0.000571506
0.000460886
0.000399709
-0.000313038
2.90656e-05
9.30824e-05
0.000371873
9.11487e-06
-0.000384069
0.000417135
0.00240324
0.000288014
4.19644e-05
-0.000815326
0.00021901
-0.00141677
-0.000348185
0.000250579
0.000366055
5.14428e-05
0.000115725
0.000726996
-0.000323452
3.31466e-05
0.000372521
-0.000281996
6.06402e-05
3.53639e-05
0.000219147
-7.45759e-05
4.2407e-05
-0.000486511
-3.73785e-05
0.000337017
-0.00021048
-8.61286e-05
-2.52181e-05
0.000120554
-3.59607e-05
0.000423777
0.000851083
-0.000637582
0.000193921
-0.000489385
0.000449108
-0.000549694
-0.00015653
-1.0895e-05
-0.000343644
0.000395087
0.000245806
-0.000111592
5.94822e-05
0.00081
9.30629e-05
3.34073e-05
2.28807e-05
2.11773e-05
-0.000719342
0.000394008
0.00038173
-0.000321089
-0.000407654
0.000423058
-0.000449345
0.000519806
0.00106446
0.000404933
-0.000261029
0.000330661
-0.000845524
3.80854e-05
6.91009e-05
-6.29564e-05
8.67228e-05
-0.000435274
0.000432998
0.000104168
3.09425e-06
0.000342921
-0.000249839
-2.3211e-06
0.000106846
0.000180878
-5.32105e-05
-0.000720913
-3.11306e-05
9.48108e-06
0.000818663
-0.000488002
0.000100681
-4.9147e-05
2.14539e-05
0.000365417
-0.000347768
-0.000309882
0.000193605
0.000347768
-0.000318977
0.000301083
-0.000178563
0.00039161
-0.000315956
-0.000408477
-0.000700192
0.00047445
0.000318976
-0.000281169
-0.00060075
0.000427269
0.000918752
-0.000664918
6.09259e-05
-2.66468e-05
6.66695e-05
-0.000614576
0.000516721
0.000281168
-0.00023706
0.000349121
-0.000289639
0.00023706
-0.000189692
7.3863e-05
0.000751315
-0.000660911
-9.04041e-05
0.000189693
-0.000141968
2.86106e-05
-5.92674e-05
-0.00112852
2.80312e-05
0.000373382
2.17046e-05
0.000141969
-9.6504e-05
-0.000143986
0.000108025
-0.000380706
0.00013223
9.0603e-05
-2.30676e-05
-0.000354924
0.000397331
2.83878e-05
-0.000405586
0.000426763
0.000264667
-0.000148942
0.000107191
-0.000360749
0.000253558
0.000208291
-8.77372e-05
-0.000365417
0.000374532
0.000415138
-0.000381991
-0.000130963
0.000310879
-0.000217816
0.000746298
-0.000527288
0.000106302
-0.000186786
0.000179167
0.000225913
9.65046e-05
-5.5362e-05
-0.00025663
0.000312494
-0.000726768
9.66996e-05
-1.12413e-06
4.30886e-05
6.10396e-05
-5.93031e-05
0.000318617
-0.000257691
8.61043e-05
0.000108715
-0.000424681
0.000422359
-0.000262315
0.000135356
0.000126959
0.000342715
-0.00030463
0.000781426
-0.000728474
2.89782e-05
-0.000422796
0.000432277
-1.62199e-06
0.000228934
-0.000122088
-0.000374531
0.000363636
-0.00014603
9.28193e-05
-8.10094e-05
8.41037e-05
-0.000363637
0.000338419
0.000277494
-0.000186891
-0.000139864
-0.000420279
1.84587e-05
-0.000707639
0.000221128
0.000455517
-2.25191e-05
5.53617e-05
-1.99978e-05
9.55184e-06
-0.000114198
9.11299e-05
5.71346e-06
-0.000338419
0.00030104
0.00017375
-6.74482e-05
2.17568e-05
1.53401e-05
7.99914e-05
-3.80047e-05
-6.01428e-05
-1.35163e-05
-0.000514369
0.000428241
8.60132e-05
3.96743e-06
0.000359815
-0.000768292
0.000424387
0.000690758
-0.000330943
-6.52613e-05
-6.87104e-05
5.9679e-05
0.000364419
0.00030463
-0.000276599
-5.05733e-05
7.20272e-05
0.000664918
-0.000439005
0.000142988
-5.01687e-05
0.000287082
-0.000226043
0.000202756
0.000315956
-0.000246855
0.000635038
-0.000347025
0.00019493
-9.82304e-05
-0.000395144
-0.000332759
-0.000293015
-0.000656833
0.000129546
-0.000435706
-0.000301041
0.000251894
0.000243914
-0.00015781
-0.000325757
6.47278e-05
0.000163466
-7.74531e-05
-0.000117604
7.95991e-05
2.93904e-05
7.55395e-05
1.60962e-05
-0.000193526
-0.000624275
0.000698138
1.99983e-05
8.61228e-06
7.28425e-05
-2.64739e-05
-0.00053746
0.000646176
-9.13345e-05
7.78182e-05
-0.000637271
0.000344255
-0.000433208
0.000431586
-0.000516721
0.000385758
0.000211055
-0.000131064
6.5236e-05
-0.000436397
0.000413878
5.70228e-05
0.000276599
-0.000247621
0.000135222
-5.96826e-05
0.0005869
-0.000457355
-0.000251894
0.000192591
-7.23058e-06
0.000888381
5.7769e-05
-1.40377e-05
-2.80917e-05
5.64794e-05
-0.000116215
6.60461e-05
-9.30366e-07
0.000676323
-0.000374538
0.000751315
-6.64997e-05
7.22131e-05
0.000254964
-0.000195285
0.000179788
-0.000106946
0.00040777
-0.000398219
-3.66157e-05
0.000439005
-0.00023625
-0.000364419
0.000382878
-9.53093e-05
6.88353e-05
-8.55575e-05
0.000150794
-0.000382879
0.000398219
-0.000192591
0.000123881
-0.000311599
0.000124813
-0.000162821
-0.000407771
0.000411738
5.32451e-05
4.94405e-05
0.000110692
-4.46461e-05
0.000124646
-6.68768e-05
0.000140039
-0.000575745
-1.74912e-05
2.89208e-05
4.87247e-05
0.000470843
-4.64565e-05
-8.61302e-06
3.03698e-05
5.10097e-05
1.49968e-05
-0.000304629
0.000247622
-0.000218231
2.19006e-05
0.000405582
3.90886e-05
4.38478e-05
-0.000198388
0.000625657
-0.000521304
6.39498e-05
-7.55436e-05
6.8313e-05
-0.000534018