/*--------------------------------*- C++ -*----------------------------------*\
  =========                 |
  \\      /  F ield         | OpenFOAM: The Open Source CFD Toolbox
   \\    /   O peration     | Website:  https://openfoam.org
    \\  /    A nd           | Version:  8
     \\/     M anipulation  |
\*---------------------------------------------------------------------------*/
FoamFile
{
    version     2.0;
    format      ascii;
    class       volVectorField;
    location    "0.25";
    object      U;
}
// * * * * * * * * * * * * * * * * * * * * * * * * * * * * * * * * * * * * * //

dimensions      [0 1 -1 0 0 0 0];

internalField   nonuniform List<vector> 
1924
(
(0.857079 -0.840864 8.65056e-18)
(0.972797 -1.57867 -3.42652e-18)
(1.29353 -0.661508 1.80223e-18)
(1.41623 -0.841245 1.29867e-18)
(0.743983 -1.18293 1.52557e-18)
(1.17546 -0.485398 3.59978e-18)
(1.10417 -0.778768 1.89981e-18)
(0.539861 -0.260123 4.72369e-18)
(0.472524 -0.726099 4.14241e-18)
(1.21372 -0.934154 6.15944e-19)
(-0.310183 0.0781647 8.05952e-18)
(-0.341895 -0.64428 6.38758e-18)
(0.483597 1.46777 3.25285e-19)
(-0.935525 0.44747 9.02147e-18)
(-0.616714 0.308167 3.2951e-20)
(-0.495948 0.269311 -2.82867e-19)
(0.40513 1.43833 8.30439e-20)
(-1.02541 -0.091646 9.34362e-18)
(0.6284 -0.736747 9.49799e-18)
(-1.18563 0.266026 6.18187e-18)
(0.398572 1.39605 1.98493e-18)
(0.574683 0.762631 9.64678e-18)
(-0.00171839 0.234175 3.14471e-18)
(-1.26406 -0.300092 1.53389e-18)
(0.765351 0.148042 7.54391e-18)
(0.324855 0.767275 6.7715e-18)
(0.0718518 0.916134 9.19979e-18)
(0.970464 -1.21907 1.04931e-18)
(0.845115 1.89099 1.20686e-17)
(0.202829 -0.432125 -3.44812e-20)
(0.0484994 0.668912 2.18893e-18)
(0.88102 0.452202 1.10665e-17)
(0.330996 1.52948 7.77455e-18)
(0.411879 1.18835 -1.03748e-18)
(1.17167 -1.24487 5.86816e-19)
(-0.125123 -0.0425471 -8.64988e-19)
(0.753002 1.15453 1.22399e-17)
(0.949662 0.0651498 6.14175e-18)
(0.171899 -0.442257 -3.92901e-19)
(0.276903 1.1337 -6.1436e-19)
(0.599536 1.02944 1.45384e-17)
(0.480278 1.45846 1.02304e-18)
(0.596162 0.827496 1.12471e-17)
(0.141929 0.335608 2.83271e-18)
(0.573987 -0.498587 2.96187e-18)
(0.695019 2.40622 1.55363e-17)
(0.466051 -0.863643 9.7325e-18)
(0.988857 -0.651259 -4.31748e-19)
(0.552582 1.64772 3.35046e-19)
(0.262514 1.14162 4.15368e-18)
(-0.742642 -0.135714 2.83784e-18)
(0.473768 1.43015 5.00044e-19)
(0.552847 0.601762 1.20007e-17)
(-0.83328 -0.0230856 2.88067e-18)
(0.275204 2.32699 1.46257e-17)
(1.3714 -1.24327 -7.36121e-19)
(0.570244 -0.742975 1.16215e-17)
(0.632877 -0.513604 1.81576e-18)
(0.824802 -0.838358 1.50836e-19)
(-0.108548 0.379548 -3.74668e-19)
(-0.164953 -0.17806 3.72351e-18)
(-0.431507 0.343874 -5.6354e-19)
(-0.156022 -0.0639875 4.01542e-18)
(0.150657 -0.391311 -2.79488e-19)
(-0.627737 0.0317764 1.1295e-18)
(1.30977 -1.19262 -2.77904e-19)
(-0.273358 0.318988 3.49058e-19)
(-0.156641 0.00557429 3.27695e-18)
(0.800478 2.37217 1.52799e-17)
(-0.650324 -0.196738 3.22225e-18)
(0.200372 0.693908 9.58118e-18)
(-0.388131 0.295572 -3.28603e-19)
(0.149262 -0.4143 -4.83297e-19)
(0.250583 -0.438548 1.6519e-19)
(0.242603 -0.498412 1.31625e-19)
(-0.375149 -2.27287 1.37026e-17)
(1.69622 -0.974108 -8.27333e-20)
(0.337542 -0.704562 -7.30974e-20)
(0.570785 -0.31878 1.12202e-18)
(-0.434305 -0.287073 1.35844e-18)
(-0.278464 -1.00332 -2.0939e-18)
(-0.0686663 0.762954 4.39253e-18)
(0.28416 -0.261081 1.32041e-18)
(0.313144 1.15332 4.94704e-18)
(1.38284 0.0281749 -2.09332e-17)
(-0.190572 -0.150845 4.03408e-18)
(0.906131 -1.25935 9.67133e-19)
(-0.695504 0.448629 7.58296e-20)
(0.317265 1.22503 2.37945e-18)
(0.223606 0.755698 9.5682e-18)
(-0.263738 0.350542 1.16281e-18)
(0.0263588 0.620402 1.07406e-18)
(0.537607 2.4696 1.51554e-17)
(0.371483 2.33834 1.60275e-17)
(0.326955 1.06181 7.04779e-18)
(-0.613135 0.0992111 8.6295e-19)
(1.4864 -1.15365 -5.93257e-19)
(-0.393641 -1.0901 -7.11394e-19)
(-0.131181 0.433928 1.18009e-20)
(-0.226924 -1.31109 5.39015e-18)
(0.961755 0.855329 3.69217e-18)
(0.339845 1.18059 5.23318e-18)
(-0.168722 0.461767 2.24302e-19)
(-0.0573156 0.534511 4.58808e-20)
(0.17633 1.28783 1.53525e-17)
(0.462675 -0.907809 1.59589e-18)
(0.891774 2.83627 1.65449e-17)
(-0.356938 -2.36718 1.20165e-17)
(-0.0598365 0.339757 -4.78143e-19)
(0.558783 2.62517 1.54635e-17)
(1.17755 -1.20455 -5.51673e-19)
(0.859657 2.71044 1.63687e-17)
(0.917188 -1.00592 2.45718e-18)
(0.250684 -0.309124 6.759e-19)
(0.998909 -0.457062 -2.26712e-19)
(0.219069 0.867554 7.90518e-18)
(1.05391 0.323073 3.10482e-18)
(-0.473384 0.193141 -2.28107e-19)
(-0.0205185 -0.505539 8.39999e-19)
(1.37553 -0.589453 -1.84473e-19)
(0.887357 -0.320307 5.77743e-18)
(1.22337 0.100464 -2.04673e-18)
(0.39785 1.45452 1.00545e-18)
(0.189632 0.778715 8.13464e-18)
(-0.309469 0.296213 6.16799e-20)
(0.242671 -0.8424 1.8664e-17)
(-0.320358 -2.57672 1.2798e-17)
(0.448987 -0.76058 -6.70194e-20)
(0.71806 2.82119 1.59395e-17)
(1.08234 -0.241099 -1.53907e-18)
(0.943624 -1.22227 -4.3215e-19)
(0.914083 2.4475 1.33331e-17)
(-2.67751 2.63341 3.99274e-18)
(0.287029 -0.292166 8.36468e-19)
(0.41227 1.3151 3.2622e-18)
(0.548964 2.59293 1.70182e-17)
(1.0165 1.4615 1.05555e-17)
(0.895123 2.5126 1.54967e-17)
(-1.31253 -0.15364 7.08392e-19)
(1.05052 -1.05813 1.72906e-18)
(1.23286 -1.24884 -3.54441e-19)
(-0.338755 0.332538 2.1602e-19)
(0.400979 -0.575274 1.39045e-17)
(0.198343 1.359 9.14138e-18)
(0.880679 1.02447 1.33955e-17)
(0.984822 -0.286823 -4.2888e-18)
(-0.694654 -1.95767 1.10302e-17)
(0.76946 -0.0241435 2.05665e-17)
(-0.0691964 0.293982 -4.31515e-19)
(-0.0409204 -0.437587 2.11886e-19)
(0.202219 -0.265594 1.45798e-18)
(1.01831 0.00797987 -3.20021e-20)
(0.287461 1.05523 1.76285e-17)
(0.941254 2.93242 1.77486e-17)
(0.880553 0.486782 1.06941e-17)
(-0.203623 -1.6481 2.67277e-17)
(1.17491 0.256278 -6.07113e-18)
(0.961187 0.125411 3.81404e-18)
(0.688769 -1.35854 -6.90562e-20)
(0.438221 -0.0713292 -9.62936e-19)
(0.254263 -0.340097 5.90695e-19)
(-1.03553 -0.268415 1.4181e-17)
(0.864812 2.42669 1.54946e-17)
(1.38206 0.0219215 1.08001e-19)
(0.102056 -0.30362 7.92805e-19)
(0.493578 1.81856 1.59893e-17)
(0.745675 0.788899 1.65118e-17)
(1.1269 0.281893 -5.11929e-18)
(1.13789 -0.844194 -3.57388e-19)
(0.745449 2.92512 1.64825e-17)
(0.522186 1.89478 1.34446e-17)
(0.392573 1.14313 5.09212e-18)
(0.342745 -0.946607 -8.37336e-20)
(-0.0526936 0.472151 -7.49657e-19)
(1.47892 -1.31592 2.955e-21)
(0.421712 1.08061 7.44631e-18)
(0.21735 -0.387478 6.89736e-19)
(-0.455709 1.09689 1.13531e-17)
(-0.238116 -0.283494 -1.34223e-18)
(0.698974 2.7953 2.07871e-17)
(0.454881 1.16011 8.68996e-18)
(-0.490133 0.110123 1.11736e-19)
(0.472878 -0.420681 -2.23172e-19)
(1.20542 -2.04143 1.40774e-17)
(0.61421 1.59819 -1.0839e-18)
(0.739394 -1.04477 -2.12951e-18)
(0.380663 1.16107 7.919e-18)
(0.450942 1.00706 8.29539e-18)
(0.967132 -1.04827 -9.18291e-19)
(0.31651 -0.333319 3.64974e-19)
(-1.32992 -0.504011 5.25138e-18)
(0.277351 0.647819 5.86043e-18)
(0.430066 -1.35658 -1.09495e-20)
(0.368018 2.24008 1.7184e-17)
(1.01775 0.475104 1.495e-17)
(1.01001 -0.0129025 -2.626e-20)
(0.09039 1.00126 1.0339e-17)
(0.443561 1.25301 9.73079e-18)
(0.516061 0.923693 8.491e-18)
(0.471654 1.33713 5.62203e-18)
(0.441243 1.87211 7.8829e-18)
(0.80653 -1.07527 -2.32806e-18)
(0.718573 2.63787 1.74669e-17)
(-0.381756 1.12036 1.03037e-17)
(0.477549 0.133119 5.60649e-18)
(0.444175 1.23428 7.51077e-18)
(-0.0829207 2.23813 1.55502e-17)
(0.423056 1.17171 6.62378e-18)
(0.454571 1.14698 7.72936e-18)
(-0.570778 0.644717 1.78228e-18)
(1.46331 -0.0224503 2.53973e-19)
(0.826227 3.06258 1.61772e-17)
(-1.18312 0.0634161 -7.22918e-19)
(0.715355 -1.7858 1.43122e-17)
(0.362748 1.26462 7.82332e-18)
(0.528407 -0.812818 3.01982e-19)
(-0.0465026 0.261628 -2.95573e-19)
(0.276131 0.438922 4.3315e-18)
(-0.570329 1.69278 1.48614e-17)
(0.360159 -0.827912 -1.05477e-19)
(-0.516755 -2.22904 9.32144e-18)
(0.340304 -0.215552 1.60583e-18)
(0.805706 2.11112 1.86579e-17)
(-1.08587 0.266703 8.8151e-19)
(-0.563391 0.820879 1.02683e-17)
(0.0900488 1.00255 8.83517e-18)
(0.197172 -1.41955 1.34588e-18)
(0.164421 -0.992839 -1.51247e-18)
(1.00286 -0.0722317 1.82094e-17)
(0.468841 1.37185 5.16449e-18)
(0.0989096 2.32423 1.34108e-17)
(-0.215693 0.370678 -2.48685e-19)
(0.514885 1.30497 9.43462e-18)
(-1.18364 -0.365533 6.67201e-18)
(-0.538886 0.802701 8.36049e-18)
(-0.0052298 0.082271 1.32073e-21)
(-1.09242 -0.14063 -3.89488e-19)
(-0.823698 1.66608 1.30713e-17)
(0.902557 2.54653 1.73349e-17)
(1.05664 -0.0769179 -1.10229e-19)
(-0.442857 0.0646222 8.25677e-19)
(0.479448 1.33415 6.12676e-18)
(-1.08017 -0.347549 -6.37421e-19)
(0.450126 1.20785 6.16714e-18)
(0.730106 -0.20126 8.67055e-19)
(0.36662 1.09928 7.13997e-18)
(-0.969071 1.0508 1.00867e-17)
(1.66208 -1.23665 -4.96951e-19)
(0.594554 -0.656673 1.40389e-19)
(0.243563 -0.979374 -2.1402e-18)
(0.699534 -0.950355 -1.91734e-18)
(1.38442 -0.0636873 1.1036e-19)
(0.578558 -0.836336 2.91713e-17)
(0.852377 3.10285 1.61112e-17)
(0.717176 -1.09427 -1.15371e-18)
(-0.920532 0.0833134 -1.03764e-19)
(0.331238 0.600277 2.79829e-18)
(0.506745 1.42293 7.5284e-18)
(0.75327 -1.81496 -1.88804e-19)
(-1.03498 1.39507 1.29079e-17)
(0.76333 -3.0558 -1.12334e-17)
(0.997491 2.12946 1.55735e-17)
(-0.00491759 0.408966 -2.83867e-19)
(0.690619 -0.701486 1.82389e-19)
(0.805569 0.249002 8.23454e-18)
(-0.0147317 -0.693389 -3.05517e-19)
(0.586031 1.55867 1.29262e-20)
(0.321723 -0.892881 -4.26586e-19)
(0.321443 1.93615 1.49343e-17)
(0.061099 -0.476132 3.08661e-17)
(0.456994 1.42694 5.187e-18)
(0.166776 -0.287735 9.25249e-19)
(0.60807 2.20143 1.48902e-17)
(0.514637 1.36494 9.03408e-18)
(-0.199772 0.349867 -2.42077e-19)
(-0.313958 -0.918472 -1.37029e-18)
(-1.04461 0.916358 7.66456e-18)
(-0.508022 0.618787 9.16235e-18)
(0.880821 3.17201 1.77083e-17)
(0.470711 1.35652 5.81327e-18)
(0.533348 1.35204 7.76639e-18)
(1.00145 -0.0903212 -7.3639e-19)
(-0.246237 0.365951 3.69531e-20)
(0.329529 -0.0603869 8.2113e-18)
(0.68106 -0.381668 9.93842e-18)
(0.334484 -0.407272 8.90721e-20)
(-0.0697051 -1.37733 2.60152e-19)
(1.30807 -0.179119 -1.50951e-18)
(-1.12326 1.24816 1.05479e-17)
(0.496149 1.3669 6.4409e-18)
(0.883374 2.42907 1.30465e-17)
(0.128452 -0.477303 -1.49243e-19)
(-0.404243 0.427481 3.79556e-18)
(-0.872579 -0.191408 -3.79704e-19)
(0.211508 0.908039 7.59491e-18)
(0.10857 -0.329026 8.09504e-19)
(-0.836021 0.196695 1.25703e-19)
(0.451589 1.29579 4.65758e-18)
(0.337711 -0.880184 3.56527e-20)
(-0.846675 -0.0558007 -3.21664e-19)
(0.842327 -0.198502 -1.25261e-18)
(0.869227 3.15401 1.66617e-17)
(-0.91651 -0.407871 -4.29591e-19)
(-0.0529109 0.230778 3.91787e-19)
(-1.1115 1.07586 8.65395e-18)
(0.465505 1.27687 9.97922e-18)
(0.694357 1.34788 -6.25669e-19)
(-0.861074 -0.544148 -4.77544e-19)
(0.534742 1.41006 1.00142e-17)
(0.448482 -0.233409 1.60262e-18)
(0.412307 1.20119 5.82095e-18)
(-0.0848753 -0.389636 5.78675e-19)
(-0.0379866 -0.0141248 5.02063e-18)
(0.442383 -0.391097 6.49674e-18)
(0.495449 -1.22987 -8.71228e-19)
(0.690659 1.33607 -2.33139e-19)
(0.346951 0.265907 1.10849e-17)
(-1.10723 1.25663 1.00641e-17)
(0.912022 1.8483 1.74215e-17)
(1.22845 -2.7939 1.16485e-17)
(0.0455774 -0.456606 -1.05302e-19)
(0.428883 1.43094 5.23658e-18)
(0.786561 3.12265 1.65611e-17)
(0.147463 -0.327241 6.81727e-19)
(0.0948773 1.05445 1.28209e-17)
(-0.0770315 -0.949629 -1.46604e-18)
(0.457419 1.32197 7.29736e-18)
(0.528253 1.35055 1.16416e-17)
(1.52076 -1.26808 -7.33916e-21)
(-0.329109 -1.34925 7.3823e-19)
(0.470786 1.38253 5.60649e-18)
(-0.24272 0.289783 -1.75052e-19)
(0.349775 -0.478376 3.89979e-18)
(-1.09989 0.937351 7.35427e-18)
(0.302938 -0.849067 -2.24993e-19)
(-0.357026 0.498416 2.62263e-18)
(-0.150198 0.345456 -1.78797e-19)
(0.272423 1.78645 1.46311e-17)
(-0.144409 0.305301 -2.18324e-18)
(0.634578 2.95009 1.36389e-17)
(-0.0158993 -0.936193 -1.10291e-18)
(0.206803 -0.298512 5.66113e-19)
(0.76047 -0.143726 4.10702e-18)
(0.460853 1.32698 5.21167e-18)
(-0.716385 0.0920013 -6.42299e-20)
(-0.393219 0.238205 -6.20481e-19)
(0.381604 2.14443 1.40826e-17)
(-0.29008 0.257447 3.47611e-19)
(-0.0889904 -0.342872 9.60646e-19)
(0.328548 1.19994 1.01676e-17)
(0.637099 0.490319 4.65027e-18)
(0.854355 -0.635908 -1.88473e-18)
(0.0712574 -0.294057 3.1603e-19)
(-0.757846 -0.248848 -3.47223e-19)
(0.41981 1.29909 4.14671e-18)
(0.158698 -0.937042 -6.87637e-19)
(1.07889 0.878688 -6.21146e-19)
(-0.898108 1.17858 7.37748e-18)
(0.554667 1.43357 1.06871e-17)
(-0.51661 0.06532 5.37998e-19)
(-0.290985 0.43813 5.55024e-19)
(-0.697815 -0.0915811 -2.24935e-19)
(-0.745683 -0.358645 -3.58253e-19)
(-0.187043 0.318629 -3.63613e-19)
(0.646552 0.306718 3.93791e-18)
(0.26154 2.71998 1.37048e-17)
(0.635188 -0.331112 3.33578e-18)
(0.39735 1.3644 4.64512e-18)
(-0.231519 0.363901 -1.87026e-18)
(0.235359 1.13169 1.01283e-17)
(-0.715405 -0.529259 -3.67088e-19)
(0.53319 -0.369326 1.31065e-17)
(0.637386 1.3699 8.10739e-18)
(-0.432809 0.00879528 -5.79516e-19)
(0.141877 0.499207 1.6485e-20)
(0.120743 0.817388 7.87463e-18)
(-0.666962 -0.0133539 -1.56881e-19)
(-0.64129 0.162133 2.05835e-20)
(0.719452 0.108052 4.02239e-18)
(-0.312782 0.228728 4.68562e-19)
(-0.352324 0.212546 -4.73654e-19)
(0.201213 -0.914997 -1.36474e-19)
(0.448283 1.30981 8.15937e-18)
(0.441093 -1.14506 2.66332e-17)
(0.45726 1.42645 5.49624e-18)
(-0.652326 -0.625312 -7.67689e-19)
(0.16484 -0.796846 -1.44472e-18)
(-0.208569 0.294273 -5.12069e-19)
(0.25661 0.5379 7.78323e-19)
(-0.0120204 2.39792 1.26512e-17)
(0.0896943 -0.225581 1.6068e-18)
(0.328753 -0.464334 1.42985e-18)
(0.352598 1.2185 8.72299e-18)
(-0.236543 0.255738 6.51866e-19)
(-0.221925 1.09348 5.25212e-18)
(-0.717686 1.98261 8.35018e-18)
(0.379774 0.435037 -7.8591e-19)
(0.654249 -0.0990216 1.60111e-18)
(-0.523269 -1.27484 -5.25534e-19)
(-0.424315 0.180837 -3.3508e-19)
(0.544846 -0.435051 -5.93737e-19)
(0.26339 -0.936355 5.20646e-19)
(0.460926 1.39916 4.73108e-18)
(-0.230086 0.743118 1.43242e-17)
(0.773709 0.1209 -2.22374e-18)
(-0.132922 0.306086 -6.17214e-19)
(-0.508863 -0.759902 -4.98501e-19)
(-0.25357 0.237674 1.00944e-18)
(0.570247 1.37119 6.65663e-18)
(0.449898 0.364137 -2.59151e-19)
(-0.26473 0.480137 1.01676e-19)
(0.265582 -0.465219 5.59793e-19)
(-0.842766 1.17494 6.94626e-18)
(-0.468256 2.2385 1.11237e-17)
(-0.251187 0.424055 -2.0075e-19)
(-0.0361485 0.204543 3.70277e-19)
(-0.240535 -0.867493 -5.74865e-19)
(-0.622224 -0.152395 -2.05643e-19)
(-0.171976 -0.413817 2.74408e-18)
(1.27805 -1.23892 -1.90299e-19)
(-0.626643 -0.228682 -2.35076e-19)
(0.344747 1.33316 7.14723e-18)
(-0.42834 -0.827227 2.77026e-19)
(0.434128 1.32771 2.36818e-18)
(0.510909 0.201434 1.06437e-18)
(-0.634849 -0.367786 -2.77353e-19)
(0.277975 -1.22571 -1.21569e-18)
(0.123424 -0.461388 -4.44543e-19)
(0.507046 -0.289338 7.20881e-19)
(0.0503827 0.372092 1.63733e-19)
(-0.155513 0.290663 -4.71961e-19)
(-0.177434 -0.879708 -1.35571e-18)
(-0.012483 0.362853 -5.46635e-19)
(0.110459 -0.436371 4.03433e-19)
(-0.168566 0.69864 6.44218e-19)
(0.112793 0.400978 -2.52108e-19)
(-0.605367 -0.452852 -2.82949e-19)
(0.361504 1.20099 -6.03018e-19)
(-0.652075 1.64239 7.90045e-18)
(0.527183 0.0957288 8.48557e-19)
(0.498346 1.45448 6.09248e-18)
(0.246862 0.389617 -4.5991e-19)
(-0.158793 -0.10386 2.18828e-17)
(0.0821322 -0.362691 9.30172e-19)
(-0.280842 0.202342 3.97402e-19)
(0.524356 -0.0564877 -1.27683e-18)
(-0.23962 0.426109 -7.01142e-19)
(0.273222 -0.919833 3.31984e-20)
(0.259371 1.22542 8.95611e-18)
(-0.190547 0.259651 -2.91992e-19)
(-0.55318 0.0861187 2.50019e-20)
(0.421077 -0.345138 3.07437e-19)
(-0.263918 -0.367592 9.15898e-18)
(-0.792897 -1.13572 -3.64343e-19)
(0.295701 0.347238 -1.40763e-18)
(0.0282507 0.903246 1.26592e-17)
(-0.539824 -0.58573 -4.7074e-19)
(-0.564243 -0.0486345 -2.23638e-19)
(0.0761053 -0.415799 -6.14986e-19)
(-0.350876 0.172335 -1.0665e-18)
(-0.0428488 -0.911986 -2.30445e-19)
(0.502675 -0.0839696 -3.25654e-19)
(0.448262 0.906735 -6.94393e-20)
(0.0085418 -0.417584 -1.33549e-19)
(0.423645 1.39167 4.5929e-18)
(-0.20649 0.242344 -2.42375e-19)
(-0.232813 0.210406 1.934e-19)
(-0.257644 0.408762 4.70962e-19)
(-0.893455 1.39781 5.82769e-18)
(0.439611 -0.30761 1.08698e-18)
(0.379106 0.261609 1.46411e-19)
(0.239313 -0.382904 8.16064e-19)
(-0.150188 -0.506692 6.72384e-19)
(-0.486943 -0.651639 -4.66788e-19)
(0.211425 1.09871 1.03991e-17)
(0.0138421 -0.924057 -2.06825e-19)
(0.112479 -0.422105 4.24462e-19)
(-0.682482 0.939384 3.93058e-18)
(-0.293006 0.178612 4.98138e-19)
(-0.402376 0.130268 -6.84718e-19)
(-0.207213 0.414385 -8.76348e-20)
(-0.307537 0.659232 4.55431e-19)
(-0.100454 0.277965 -3.38491e-19)
(-0.244507 0.192245 1.77144e-19)
(0.449366 -0.161851 -2.43854e-19)
(0.4009 0.182929 2.17647e-19)
(0.128358 0.331358 -1.67031e-19)
(-0.383964 -0.010031 -7.67123e-19)
(0.0054742 0.312146 -5.51977e-19)
(0.0398839 -1.28185 -7.76179e-19)
(0.289702 1.08716 -7.32405e-19)
(0.0420727 0.321073 -1.51816e-19)
(0.196061 -0.368502 1.19466e-18)
(1.16017 -1.31844 2.90924e-19)
(-0.545906 -0.256981 -1.74102e-19)
(-0.363888 -0.757376 1.62997e-19)
(-0.322763 0.159613 -6.49672e-19)
(-0.141286 0.256517 -2.33635e-19)
(0.182472 0.326492 -2.28963e-19)
(0.140709 -0.339327 9.99007e-19)
(-0.533831 -0.324552 -1.80401e-19)
(-0.532383 0.00505683 -2.72187e-19)
(0.466472 1.48156 8.08805e-18)
(0.425264 0.066782 -2.48865e-20)
(0.447337 1.33531 8.7107e-19)
(-0.0422879 0.180863 6.55469e-20)
(-0.524598 -0.152958 -1.74529e-19)
(0.259237 0.273505 -5.71007e-19)
(0.346061 -0.2597 1.80462e-19)
(-0.510637 -0.444569 -1.92066e-19)
(0.138815 -0.961011 1.66472e-19)
(-0.308825 -0.789346 7.80219e-19)
(-0.159437 0.242468 -1.10858e-19)
(-0.709166 0.368232 6.13091e-18)
(-0.18906 0.216084 -3.1676e-19)
(-0.202588 0.20035 -1.73247e-19)
(0.406027 -0.0104129 -3.13858e-19)
(-0.218631 0.778324 7.92289e-18)
(-0.61987 1.0222 2.67732e-18)
(-0.368114 0.126864 -5.39225e-19)
(0.0896169 -0.353669 1.03544e-19)
(-0.514326 -0.0991521 -1.51382e-19)
(-0.175183 -0.853488 -3.4997e-21)
(-0.477536 -0.510786 -1.93452e-19)
(-0.37557 0.277006 1.66218e-18)
(-0.327502 0.732357 6.61492e-18)
(0.0768802 -0.931527 -2.79772e-18)
(-0.332237 -0.323851 -2.51322e-18)
(0.292849 0.237865 -1.18704e-20)
(-0.284723 0.419284 1.79914e-19)
(-0.000298123 -0.367117 -7.48818e-21)
(-0.708557 0.815469 2.69322e-18)
(0.289665 -0.282835 -9.27511e-20)
(-0.237344 -0.369027 2.12158e-18)
(0.418253 1.43767 3.6854e-18)
(-0.223061 0.170036 6.27635e-20)
(-0.283836 0.499255 -3.06731e-19)
(0.226175 0.792161 1.17002e-17)
(0.451396 0.844394 -1.3162e-18)
(0.340142 0.144783 3.05803e-20)
(0.361545 -0.117287 -6.22044e-19)
(0.151097 -0.350502 9.14522e-19)
(-0.50299 -0.343226 -1.1211e-18)
(0.173863 -0.959679 1.29484e-18)
(-0.40682 -0.623886 -2.42554e-19)
(0.0536605 0.279805 -2.77828e-19)
(0.0991656 -0.475479 -8.96883e-20)
(0.120912 -0.379594 6.24675e-20)
(-0.262867 0.159416 3.93446e-19)
(-0.727428 -1.00414 -6.07202e-19)
(0.092468 0.286922 -2.81688e-19)
(-0.0958712 0.245492 -6.14047e-21)
(-0.407775 0.0772648 1.40614e-19)
(0.176579 -0.30674 4.02679e-19)
(0.166288 0.265291 2.1543e-19)
(-0.217275 -0.423738 1.97665e-18)
(-0.319566 -0.320894 -1.39875e-18)
(-0.585858 -0.224313 6.59947e-19)
(0.122342 -0.35358 9.04562e-19)
(0.106324 -0.441756 4.40945e-19)
(0.339764 0.0867951 -1.57809e-20)
(0.0669367 -0.328995 1.95542e-19)
(-0.984943 -2.90163 1.04304e-17)
(-0.115229 0.233826 -4.87426e-20)
(0.47469 1.40574 1.08702e-17)
(-0.150118 -0.155163 6.07323e-18)
(-0.120568 -0.879571 2.15888e-19)
(0.767337 -1.35227 6.34961e-19)
(-0.0374159 -0.479647 1.05512e-18)
(0.317934 -0.164144 -1.74252e-19)
(-0.361501 -0.676005 -1.34011e-19)
(-0.00699318 0.27475 -1.24248e-19)
(0.199235 0.246291 1.68466e-19)
(-0.146933 0.214755 -4.57791e-19)
(0.215471 -0.94267 3.44628e-19)
(-0.185745 0.177882 -1.10372e-19)
(-0.280834 -0.37771 4.53585e-19)
(0.524916 1.3547 4.03828e-18)
(-0.458936 -0.338213 -1.14649e-19)
(-0.123586 -0.502804 9.97417e-19)
(0.329988 -0.00913463 -1.89371e-19)
(-0.315469 0.126749 -9.25955e-19)
(-0.702035 0.930263 2.35721e-18)
(-0.161407 0.201794 -6.54254e-19)
(-0.526912 -0.0938452 -8.97856e-20)
(-0.424234 -0.345726 -1.26635e-18)
(-0.463847 -0.237973 -1.10671e-19)
(-0.111605 -0.299977 1.89464e-19)
(-0.267128 -0.768644 4.95903e-19)
(0.189979 -0.329498 2.8104e-19)
(0.253841 0.18539 -3.14814e-19)
(0.14272 -0.300861 -1.65961e-19)
(0.176303 -0.213119 3.7334e-17)
(-0.521849 -0.14394 2.36774e-19)
(-0.528341 -0.272277 -6.28594e-19)
(-0.439452 -0.398662 -1.09116e-19)
(-0.196793 0.163395 -5.31166e-20)
(0.367592 -1.0875 -1.57716e-18)
(-0.231726 0.153974 1.32314e-19)
(-0.0137702 -0.344048 -2.60114e-19)
(-0.509551 0.0145663 1.74148e-19)
(-0.466821 -0.184556 -1.04206e-19)
(-0.270474 0.390632 -4.24026e-19)
(0.0910751 -0.379895 9.6251e-19)
(0.239652 -0.224817 6.31863e-19)
(-0.602661 0.607917 1.516e-19)
(-0.256194 0.691402 3.93664e-18)
(-0.00112084 -0.938322 -1.88912e-19)
(-0.0360287 0.065579 7.3622e-18)
(-0.105361 -0.260442 4.53799e-20)
(0.26542 0.143655 -1.21829e-19)
(-0.461753 -0.0223862 -8.58123e-19)
(-0.268294 -0.388743 9.47484e-19)
(-0.0961409 -1.23963 -1.35299e-18)
(0.304799 -0.0609243 -3.50629e-19)
(-0.271829 0.139257 4.89027e-19)
(-0.333893 0.37881 1.16404e-18)
(0.396531 1.33141 4.36944e-18)
(-0.477353 -0.0636041 2.19177e-19)
(0.124804 -0.364105 -4.29752e-19)
(-0.401566 -0.508887 -8.49445e-20)
(-0.220303 -0.810802 5.45423e-19)
(0.601645 -1.39205 1.74268e-18)
(0.283918 0.0658325 -5.67008e-21)
(-0.304805 0.473394 5.3891e-19)
(-0.173132 -0.553226 3.55733e-18)
(-0.343243 -0.362717 1.96333e-18)
(-0.294183 0.120429 -3.8632e-19)
(-0.230536 0.578878 1.67402e-18)
(-0.199455 -0.444378 5.67995e-19)
(-0.3501 0.0914756 -3.21726e-19)
(0.0901967 0.240026 -1.83549e-19)
(0.163883 -1.07598 -2.02452e-18)
(-0.048414 -0.33715 4.76551e-19)
(0.201565 -0.240749 1.05109e-18)
(-0.48944 -0.0398993 2.29717e-19)
(0.122267 0.234662 -5.59855e-20)
(0.0964375 -0.376054 1.16938e-18)
(0.032656 0.246393 -1.72727e-19)
(-0.36989 -0.568207 -4.2956e-20)
(-0.0762364 0.222094 4.64097e-19)
(-0.108648 0.2076 -9.46258e-20)
(0.258013 -0.132634 -2.91603e-19)
(0.176745 0.196737 5.77847e-20)
(-0.0313377 0.158698 2.68929e-19)
(-0.441451 -0.105285 -5.87896e-20)
(0.272869 0.0180634 -4.80294e-20)
(-0.363843 -0.0437148 5.48696e-21)
(0.00322945 0.239979 -2.59628e-19)
(0.434786 1.27321 1.11409e-17)
(0.0723605 -0.290776 2.1241e-19)
(-0.124379 0.197189 -1.06785e-20)
(1.02884 -0.764895 1.59189e-18)
(-0.275841 0.400272 2.69565e-19)
(-0.309538 -0.368977 1.11896e-18)
(-0.150028 0.178928 -7.42715e-20)
(0.0119752 -0.301175 -3.09037e-20)
(0.0461418 -0.950896 -1.52184e-18)
(0.194868 0.170716 -1.08549e-19)
(-0.151488 -0.455365 4.80827e-19)
(-0.0983832 -0.488476 2.69114e-18)
(-0.42441 -0.31592 2.57867e-19)
(0.258392 -0.924155 -1.33623e-18)
(-0.302678 -0.673062 1.18852e-19)
(-0.162161 0.16709 -3.17824e-20)
(0.0811664 -0.400856 6.65429e-19)
(0.224674 0.111189 -7.69849e-20)
(-0.325 0.0916588 -3.81517e-19)
(0.126441 -0.256962 1.96282e-19)
(0.227113 -0.162354 6.73024e-20)
(0.251051 -0.0527997 -2.01721e-19)
(-0.110314 -0.881662 3.45157e-19)
(-0.0603249 0.630898 -6.98756e-19)
(-0.315488 -1.22523 -7.16106e-19)
(-0.429795 -0.0662267 -1.03537e-19)
(-0.26654 -0.722664 1.84387e-19)
(-0.451565 0.636393 7.43451e-19)
(-0.37474 0.0458791 3.88342e-19)
(-0.464019 -0.222859 -4.11165e-19)
(-0.249954 -0.392937 -8.06124e-20)
(-0.39487 -0.313008 -5.72095e-20)
(-0.405912 -0.260218 -5.59622e-20)
(-0.244781 0.125601 3.08973e-19)
(-0.212836 0.136345 8.75782e-20)
(0.226578 0.0745132 -4.82055e-20)
(-0.303703 0.42156 3.49279e-20)
(-0.18176 0.145069 -1.18106e-20)
(0.171494 -0.292822 1.65501e-19)
(-0.373662 -0.413817 -4.67843e-20)
(-0.369913 -0.327565 5.20575e-19)
(0.196826 -0.367489 6.19247e-19)
(-0.284584 0.377472 5.97666e-19)
(0.146351 -1.45009 2.72509e-18)
(0.111198 0.19121 -1.56169e-19)
(0.0524772 -0.277486 1.789e-19)
(-0.400707 -0.177048 -1.12586e-20)
(-0.213188 -0.402154 -1.51706e-19)
(0.143489 -0.943814 7.96131e-19)
(0.228775 -0.0893752 -3.00867e-19)
(0.227385 0.0101997 -7.45651e-20)
(-0.186526 -0.808792 5.93663e-19)
(-0.0614015 -0.287575 1.99075e-19)
(0.0624029 0.211769 1.84222e-19)
(0.493966 1.30885 4.68758e-19)
(-0.439203 -0.1333 -9.82798e-20)
(0.0361797 0.210997 1.13513e-20)
(-0.0740261 0.197163 -3.32775e-19)
(0.132378 0.1771 -4.81489e-20)
(-0.35196 -0.472236 -1.16314e-20)
(0.168405 -0.201401 2.94987e-19)
(0.102274 -0.254355 1.67442e-19)
(-0.420976 -0.247875 8.47709e-20)
(-0.0906694 0.188885 -4.37074e-19)
(0.203003 -0.287861 -6.42586e-19)
(0.167989 0.134669 -5.13364e-20)
(-0.170599 0.529742 3.13194e-19)
(-0.117236 0.175001 5.79148e-20)
(-0.00306898 -0.28671 -1.01697e-19)
(-0.399244 -0.135751 1.33669e-20)
(0.587681 -0.240232 1.28022e-17)
(0.170762 -0.910129 1.70857e-18)
(-0.285221 0.0941561 -3.75505e-19)
(-0.0637505 -0.903668 3.1648e-19)
(-0.292358 -0.342431 -1.31957e-19)
(-0.351617 0.054169 -1.21127e-19)
(0.0474271 0.772474 6.84537e-18)
(0.235196 -0.581524 -2.65458e-17)
(-0.425034 -0.0676224 2.84452e-19)
(0.209674 0.772523 4.58266e-18)
(-0.308136 -0.580624 1.68654e-19)
(-0.130226 0.165424 4.93869e-20)
(-0.138109 -0.396788 5.00391e-19)
(0.13118 -0.342148 1.67125e-18)
(0.213823 -0.025849 -7.14867e-20)
(-0.219161 0.122746 1.14309e-19)
(0.176396 0.108058 -6.16936e-20)
(-0.190782 0.13228 2.11075e-20)
(-0.00972369 0.212193 2.57977e-20)
(-0.251851 0.110268 2.19109e-19)
(-0.0352245 -0.281144 7.41076e-20)
(-0.42279 -0.157893 -2.13933e-19)
(-0.151381 0.148062 2.50541e-20)
(-0.146024 -0.84168 1.32284e-18)
(-0.342556 0.10921 3.19361e-18)
(-0.174316 -1.28031 4.908e-18)
(0.0406071 -0.396014 9.19219e-19)
(0.186972 -0.138403 -7.21229e-19)
(-0.258639 -0.346571 -2.30502e-19)
(0.141815 -0.211711 4.86272e-19)
(-0.280779 -0.636663 3.04651e-19)
(0.190596 0.055404 -1.16602e-19)
(-0.0365772 0.14063 8.29721e-21)
(-0.454352 0.610889 4.20996e-20)
(0.103984 -0.342563 5.81697e-19)
(0.120753 -0.351053 7.26348e-19)
(-0.255661 0.401692 1.73395e-19)
(0.0993103 -0.484455 -1.00306e-18)
(-0.407327 -0.0881794 2.83793e-19)
(0.535009 -0.332879 -1.68056e-19)
(-0.26878 0.0913808 2.42126e-20)
(-0.176026 -0.339053 6.77588e-18)
(-0.161536 0.137276 3.13983e-20)
(-0.324406 -0.0502158 4.69495e-19)
(-0.220494 -0.730434 2.85498e-19)
(0.186059 0.0243245 -1.83618e-19)
(-0.193392 -0.349209 -9.13422e-19)
(0.116048 0.142557 -3.18685e-20)
(0.189232 -0.078514 -1.80756e-19)
(-0.340073 -0.281112 -1.05134e-18)
(0.0594884 0.176496 1.76525e-19)
(-0.309129 0.0660153 -4.1845e-19)
(0.079757 0.170343 -2.25619e-21)
(0.131098 -0.35718 9.50295e-19)
(-0.0871643 0.167492 5.96889e-20)
(0.414509 1.31755 8.04366e-19)
(-0.339082 -0.335419 -1.92524e-20)
(0.163764 -0.157732 -9.08432e-19)
(0.128587 0.125156 -2.55751e-20)
(-0.300067 -0.290856 -5.31847e-19)
(-0.0599972 0.175517 -4.1005e-20)
(-0.0795598 -0.256809 2.55438e-20)
(0.040209 -0.917383 3.73866e-19)
(-0.331182 0.410853 -6.12956e-19)
(-0.629634 -2.60149 1.02475e-17)
(-1.25087 0.281995 3.35333e-18)
(-0.33778 -0.485839 2.66211e-18)
(-0.364277 0.00957972 -1.36585e-19)
(0.0183694 0.18671 -1.3209e-19)
(-0.355855 -0.202037 7.98527e-21)
(0.139251 -0.34952 -5.68961e-20)
(-0.156863 -0.348249 -4.2607e-19)
(0.0105897 -0.257141 -3.82264e-19)
(-0.349669 -0.246332 -2.86777e-21)
(-0.100769 0.159827 7.08436e-20)
(0.177689 -0.0263552 2.71678e-20)
(-0.18896 -0.768834 6.18468e-19)
(-0.323221 -0.389792 5.25604e-21)
(-1.14267 0.359232 3.00312e-18)
(-0.00306088 0.183753 -1.58424e-19)
(0.05299 -0.247096 1.46666e-19)
(-0.0282776 0.44694 1.91171e-18)
(0.119311 0.586083 6.32867e-18)
(0.150141 0.0838488 -8.62614e-20)
(0.0742487 -0.448643 8.84819e-19)
(-0.0522164 -0.869063 9.83594e-19)
(-0.375062 -0.0735931 5.80393e-20)
(0.0879715 -0.357986 4.65073e-19)
(-0.290498 0.067161 -5.7761e-19)
(-0.122882 0.146507 7.08131e-20)
(0.170441 -0.103739 -2.54757e-19)
(0.216786 -0.73492 4.38805e-19)
(-0.291905 -0.494159 1.17627e-19)
(0.136918 -0.345073 8.08655e-19)
(-0.499125 0.0295966 1.68807e-19)
(0.0904686 -0.221624 3.54434e-21)
(-0.234034 -0.299135 -9.63731e-20)
(-0.243065 0.094492 1.29211e-19)
(-0.366254 -0.204033 -1.15546e-19)
(0.151894 0.0593342 -1.8441e-19)
(0.0321954 -0.526871 1.87241e-18)
(-0.0460263 -0.245961 9.21746e-20)
(-0.266736 0.393892 -6.33289e-19)
(-0.347968 -0.134194 8.32692e-20)
(-0.333845 -0.221111 -3.14808e-19)
(-0.177756 0.117252 -2.99409e-19)
(-0.270403 -0.551636 3.02365e-19)
(0.164304 -0.0533662 -4.05748e-20)
(-0.203776 0.108724 3.01732e-21)
(-0.133814 0.137586 6.09385e-20)
(-0.201887 -0.301684 -1.49583e-19)
(-0.32588 0.0324612 -3.33012e-19)
(-0.118261 -0.807031 1.09773e-18)
(0.119478 -0.182941 -5.3958e-20)
(0.0714689 0.139638 2.42568e-21)
(0.155175 0.0147507 1.20875e-19)
(0.0855471 0.129455 -3.05193e-21)
(0.0813349 -0.892387 4.69339e-19)
(-0.226756 0.0867238 6.49747e-20)
(-0.225959 -0.651466 1.74643e-19)
(0.249585 0.988959 -2.76143e-18)
(-0.596618 -1.28978 4.45199e-18)
(-0.47912 -0.0195006 1.07755e-19)
(0.0379039 0.156765 -1.32423e-19)
(0.110435 0.0993239 -1.09622e-20)
(1.06126 0.641563 -5.26027e-18)
(0.000483171 -0.246329 -6.68235e-19)
(0.0200755 0.158357 -1.86881e-19)
(0.147791 -0.0102902 1.3046e-19)
(-0.261461 0.0714159 1.98182e-19)
(0.039091 -0.237741 2.67975e-19)
(-0.372736 0.458942 -1.23863e-18)
(-0.151617 0.121255 6.33971e-20)
(-0.270394 -0.243868 4.67073e-19)
(-0.0142321 -0.850391 1.91766e-18)
(-0.308931 0.0386984 -1.42415e-19)
(-0.0603219 0.15549 3.84354e-20)
(-0.0247745 -0.242459 4.2153e-20)
(0.135439 -0.137862 1.87041e-21)
(-0.364707 -0.130643 4.78406e-19)
(0.151373 -0.786286 1.65228e-18)
(-0.211516 0.0955201 3.22982e-20)
(-0.345134 -0.100821 1.2967e-19)
(-0.0739364 0.150019 1.17199e-19)
(0.012706 -0.489076 6.32676e-18)
(-0.0773011 -0.22509 -2.88643e-20)
(-0.0964202 0.141307 3.9073e-21)
(-0.344459 -0.149737 -2.06946e-20)
(0.116466 0.0813562 -2.64966e-20)
(-0.238385 -0.251282 2.8335e-19)
(-0.146912 -0.301406 -1.57733e-19)
(-0.202965 -0.694462 -1.49252e-19)
(0.073145 -0.220122 1.56746e-20)
(-0.105371 -0.198452 3.2001e-20)
(-0.313381 0.372634 2.20256e-19)
(0.14033 -0.0920949 7.12796e-20)
(0.0851558 -0.505671 6.51823e-19)
(-0.0839801 -0.80144 -1.55758e-19)
(-0.115325 -0.226862 1.6453e-20)
(-0.124122 0.359208 1.62316e-18)
(-0.0127211 0.162596 1.24411e-19)
(0.0445552 -0.398187 3.11316e-19)
(0.100409 -0.189549 -1.00035e-19)
(-0.248961 0.0726594 1.78419e-19)
(-0.378323 -0.306953 1.77251e-18)
(-0.0292002 0.122073 2.5316e-20)
(0.127458 0.0442537 3.62087e-20)
(-0.10782 0.134107 6.02243e-20)
(-0.916878 -0.872224 4.45858e-18)