/*--------------------------------*- C++ -*----------------------------------*\
  =========                 |
  \\      /  F ield         | OpenFOAM: The Open Source CFD Toolbox
   \\    /   O peration     | Website:  https://openfoam.org
    \\  /    A nd           | Version:  8
     \\/     M anipulation  |
\*---------------------------------------------------------------------------*/
FoamFile
{
    version     2.0;
    format      ascii;
    class       volScalarField;
    location    "0.65";
    object      alpha.water;
}
// * * * * * * * * * * * * * * * * * * * * * * * * * * * * * * * * * * * * * //

dimensions      [0 0 0 0 0 0 0];

internalField   nonuniform List<scalar> 
1924
(
0.0619689
2.70493e-07
6.3304e-11
2.8063e-12
6.18906e-05
1.12483e-08
3.62324e-08
1.75969e-05
0.00197225
1.00862e-10
0.0059665
0.0059657
0.516813
0.00470142
0.00366874
0.00346096
0.105078
0.00140657
0.486897
9.36272e-06
1
5.11215e-05
0.00856385
9.44504e-06
5.66452e-06
2.71445e-09
2.41057e-07
1.27974e-07
1.35923e-05
0.000306533
0.0386683
1.60828e-09
0.0105855
0.051016
1.26537e-07
0.0085613
1.38598e-09
4.87702e-09
1.59501e-06
0.0512918
6.39567e-10
1
6.39453e-10
0.00998532
5.8028e-10
0.000189037
0.195458
7.46393e-10
1
1
0.905816
0.308365
1.02542e-05
0.0891717
1.2518e-05
1.02998e-10
0.487376
5.78319e-10
3.09924e-10
0.00794687
0.0532027
0.00151438
0.861813
1.7448e-06
7.33545e-05
3.9793e-10
0.000780192
0.00856385
1.99366e-06
0.737992
0.0553912
0.000472787
1.59777e-06
1.09719e-08
4.96212e-15
0.0165164
1.78449e-12
1.5225e-13
7.5046e-10
0.988199
6.35244e-12
4.48229e-06
2.74482e-09
0.999342
0.0759849
0.0136144
2.85136e-10
0.00015593
1
0.355089
0.00122872
0.000868093
0.000217559
2.55693e-05
0.223805
5.08774e-05
2.67207e-12
6.48364e-12
0.00942573
0.043821
2.33427e-10
0.490354
0.00819596
0.00724386
9.53486e-06
4.58365e-14
5.71174e-09
9.67942e-06
0.000857367
2.50708e-05
2.64472e-12
1.94386e-06
5.34339e-09
0.00056353
1.78449e-12
0.996058
2.22512e-09
0.00240232
3.94613e-05
1.77596e-12
0.622279
1
1
0.608382
0.00011513
6.98789e-05
0.00672671
1.44602e-13
1.22405e-08
1
6.45786e-13
2.14995e-08
0.0462439
3.19199e-07
0.0789696
3.99775e-06
4.72617e-09
4.87702e-09
1.1299e-05
2.37335e-08
3.61185e-10
0.000113257
0.523761
0.00983108
4.03972e-08
1
0.000101808
0.043078
3.20727e-05
3.95003e-05
8.63502e-08
1
0.0365219
1.52369e-07
3.38412e-07
7.26791e-06
1
1.00896e-10
1.9416e-11
0.0247735
0.00144797
0.00207743
1.30943e-05
1
7.837e-05
5.90266e-08
1.13171e-08
1
1.76258e-12
1.22487e-08
0.000257981
0.000299168
4.42907e-14
0.00942384
1.34024e-10
0.0003553
0.00148593
0.307382
0.00856119
0.00131737
3.11899e-09
0.000287738
3.26941e-12
7.42586e-09
0.999999
8.39787e-11
0.00640136
3.11899e-09
4.13514e-13
0.000265041
0.000353165
0.00334218
4.3471e-13
0.00433653
1.13171e-08
1
7.75557e-10
0.000337797
2.26429e-08
0.000113822
0.125098
2.70361e-07
5.16069e-08
0.00600174
0.000260797
3.09598e-09
0.00601453
0.0501955
0.0415022
0.043934
1
1.05086e-08
0.000106426
7.44328e-07
5.1378e-07
1.35399e-13
0.00034331
0.0003553
0.0060142
1.86756e-13
2.82438e-05
1.01669e-09
3.23009e-08
0.000349148
0.00599722
6.70603e-10
1.36941e-08
5.29355e-13
9.85833e-07
3.53302e-08
0.0358264
0.00796791
3.39248e-09
0.0437582
6.47419e-10
0.024784
0.00168613
0.0058678
1.02092e-07
1
2.70964e-07
3.11899e-09
2.0979e-05
0.0314072
0.0869754
0.044138
0.00450382
2.69327e-12
6.61769e-13
4.45533e-14
8.38988e-11
1
7.25949e-07
1.22684e-08
4.11902e-13
0.00462492
9.44682e-08
1.11617e-07
3.11274e-07
0.00109188
6.89421e-09
1.43357e-06
0.00882456
6.83487e-13
1.79529e-09
4.18526e-15
1
6.57533e-14
1.21482e-05
0.523761
1.57789e-06
0.000231394
0.000525038
3.86724e-07
6.51676e-06
3.15644e-11
0.000363995
6.42221e-10
1.0409e-07
1.05043e-08
0.419873
1
0.00797273
8.11479e-07
0.622404
2.49854e-10
-1.05503e-10
1
9.34717e-06
1.03257e-07
3.76238e-05
1.59829e-06
6.50775e-10
0.00462492
1
7.85e-05
0.00411525
0.0407768
1.24512e-13
0.00462492
1
9.70252e-07
2.1231e-05
0.000341745
9.34719e-06
6.41141e-10
1
2.47472e-05
2.90348e-05
5.93196e-10
0.0592123
0.0125523
5.4959e-07
3.44465e-07
4.01467e-13
0.99066
6.34291e-09
9.34689e-06
0.000562578
4.18229e-07
5.14105e-07
2.14192e-06
4.10939e-05
0.000718435
6.41344e-10
1.8513e-11
2.77785e-06
6.4158e-10
2.71472e-12
0.000393725
4.21652e-06
6.63321e-06
2.85293e-07
9.34843e-06
2.33246e-15
6.49681e-10
6.51681e-06
0.00354486
9.87791e-08
0.00250427
5.1081e-12
0.00140143
6.14006e-06
0.0237763
0.00461909
0.000188943
0.00978863
0.000744533
0.00370354
6.39567e-10
5.7406e-06
0.234469
7.88591e-05
0.00170104
0.0754753
1.88051e-13
1
9.34719e-06
5.47499e-05
2.04394e-05
2.26098e-05
0.00462492
6.98584e-06
6.5172e-06
8.65559e-09
0.0060142
5.38833e-07
0.000974472
7.69942e-08
0.000350977
0.000511396
2.51679e-08
1.69176e-08
4.98339e-06
0.00747047
0.634048
0.00462266
0.00461778
0.00233024
0.000844656
0.000183612
2.9648e-15
2.77785e-06
6.00644e-08
8.70568e-06
0.00327835
7.65269e-15
6.53113e-06
0.00313936
0.00601484
0.00326138
1.64484e-07
6.90396e-10
8.45005e-06
0.00193108
0.117718
1.94754e-05
0.000960136
0.00310838
3.32289e-07
1
2.59618e-16
0.0128431
1.21279e-05
1
6.51665e-06
3.1812e-11
9.59779e-06
5.47499e-05
5.83568e-06
0.00338738
8.38105e-08
9.35659e-06
0.00601033
1.0223e-07
0.000329639
5.16777e-11
0.00462268
0.0138366
2.77797e-12
0.00447576
0.00160282
3.16768e-11
0.0278572
2.91241e-07
5.39748e-06
1.45318e-13
3.80249e-07
7.37193e-06
0.00802172
6.51681e-06
3.96328e-11
0.000282827
4.42282e-05
1.24916e-07
0.00891353
5.39748e-06
0.88988
0.00346358
0.00269391
7.11713e-06
0.00118115
5.62089e-09
0.0129053
0.000844656
0.178501
0.00925793
2.13682e-15
6.40418e-10
7.58438e-06
0.00363932
3.07184e-07
4.52204e-08
0.00438277
2.41434e-05
6.41607e-10
4.48426e-11
0.0027553
5.07454e-05
0.000162804
7.92286e-12
0.00491406
0.99794
4.09605e-05
0.000618766
8.85976e-06
2.86957e-05
9.47219e-08
9.34689e-06
1.99803e-09
0.000658145
8.05314e-08
1.31897e-07
3.31017e-11
0.0016073
1.55257e-12
2.18146e-06
1.5411e-05
0.00050459
2.55551e-07
0.00926681
5.57236e-05
2.97115e-05
0.000150364
0.000554601
0.00177609
0.00891353
7.21456e-05
0.000280379
3.20196e-13
1
6.97168e-06
8.00886e-08
2.82342e-12
3.81016e-05
6.88421e-11
0.000361084
6.5252e-06
0.00707464
0.000681703
3.79497e-05
2.83965e-06
7.13497e-06
0.00840141
0.017982
5.04925e-09
0.00462326
3.14907e-05
3.65025e-07
1.23193e-05
1.734e-16
6.57363e-11
1.03249e-05
2.86721e-09
7.4993e-06
6.12716e-06
0.00835551
6.42166e-10
1.30347e-05
2.38828e-07
2.6421e-05
0.00341751
3.83236e-11
9.41749e-11
7.07917e-09
2.67109e-09
4.88149e-13
0.0085609
0.00366833
1.02284e-07
1.02254e-05
1.54463e-05
8.1834e-08
0.0205524
0.0129948
3.68687e-07
1.34968e-06
0.00137815
0.294151
0.00842003
2.03727e-05
0.000608983
0.988384
2.59476e-16
9.99064e-11
4.8038e-06
4.77535e-10
0.000161956
3.68686e-07
0.00174464
0.00328593
6.50249e-05
2.64929e-07
8.00178e-08
0.00136318
0.0204912
0.00856106
0.998001
0.00858484
5.39107e-07
0.00840842
5.21492e-06
1.21482e-05
3.90748e-05
1.06804e-05
0.00567672
1.66629e-11
1.26012e-09
3.77149e-10
1.5767e-06
8.96191e-11
0.000341745
6.30026e-05
1.69553e-05
6.79893e-16
3.60146e-07
0.0189106
0.0129286
7.69058e-05
0.00194332
0.00766555
2.58015e-07
1.63719e-05
6.9801e-07
0.364022
0.383037
7.94818e-05
0.0298612
7.03244e-11
0.00148339
0.00842007
8.00231e-08
0.451062
0.998025
0.997363
6.25893e-05
9.39377e-07
5.23768e-14
3.59584e-07
1.16407e-05
2.31116e-05
0.00356359
4.11521e-06
1.15748e-06
8.0336e-08
1.58677e-05
1.06971e-07
3.07121e-16
0.00206494
0.0292011
0.00842683
2.73733e-06
0.0205524
-1.15377e-11
0.00046696
3.55777e-06
1.34173e-09
0.00372497
0.186369
0.000388422
1.32077e-10
4.46714e-11
3.08261e-07
0.00840266
3.68936e-06
1.96541e-13
0.00856119
3.14267e-06
0.000113009
0.0169821
2.24549e-07
0.00108361
2.13879e-13
0.0016605
8.00168e-08
6.1548e-05
0.000259086
0.0129389
2.45994e-06
1.3195e-10
0.000198751
7.20463e-05
5.29863e-07
4.0762e-05
1.53459e-09
2.69666e-06
0.00802043
7.44667e-05
9.34489e-05
1.00181e-05
8.00228e-08
3.08189e-05
1.02295e-10
5.1184e-08
0.00856166
6.63652e-07
5.41415e-05
3.06242e-16
0.000625143
0.00457592
0.0020305
0.278354
2.79278e-13
9.96572e-11
3.60146e-07
1.17589e-06
0.00842683
2.43932e-07
8.00228e-08
8.90059e-08
1.04569e-05
1.02962e-15
0.99998
3.30646e-10
2.67796e-06
7.09159e-11
4.78605e-05
2.24549e-07
0.996725
0.0173821
4.74232e-05
3.58315e-07
3.60209e-06
3.5552e-07
0.00825633
3.49427e-06
4.30071e-07
0.999999
9.05534e-11
0.00856166
0.00148702
0.000212693
0.000180058
0.000246576
0.00023967
0.0034432
0.0118734
3.51874e-16
1.412e-06
0.000443257
5.77672e-13
0.00166892
2.38039e-06
0.0247188
0.998025
1.91599e-06
2.56025e-06
3.23031e-05
1.4029e-10
8.00242e-08
8.00231e-08
0.937107
4.8914e-06
1
0.00104823
0.000153271
3.3872e-06
5.6622e-05
0.00148017
0.322573
6.79981e-16
4.36991e-07
1.02705e-15
0.00856402
2.14615e-07
1
0.461141
0.731146
0.00822688
2.16178e-10
3.43416e-06
0.0216393
0.000131469
8.36835e-06
6.39224e-07
0.00842683
1.86602e-09
0.000209134
2.38553e-06
0.00226228
0.998025
5.70322e-07
1.30453e-15
0.1183
0.00485258
0.0127458
8.13385e-08
0.00856584
8.00231e-08
1.29945e-10
0.000299305
2.353e-09
4.80244e-05
1.15748e-06
0.000131155
3.21755e-07
7.00064e-08
0.998025
1
1.94272e-07
3.59037e-10
1.22636e-07
9.89934e-05
2.76411e-11
2.13732e-05
0.012425
3.0303e-05
1.03138e-07
0.00856179
4.91579e-05
9.20139e-07
0.000309224
0.00203756
2.95882e-06
0.037623
7.30545e-11
8.01601e-08
3.08852e-05
0.0085621
7.69497e-06
0.00771521
2.12665e-15
2.75254e-05
2.16154e-05
9.58514e-06
1.95178e-13
4.9616e-05
2.61779e-07
0.000247789
0.000295485
0.0217393
5.91687e-05
7.01613e-09
3.52862e-06
2.56425e-06
8.92662e-12
8.98246e-11
6.33755e-06
5.54803e-05
0.000466571
0.999959
0.00540308
0.00189869
7.03721e-08
5.24307e-15
3.13751e-06
1.15706e-06
8.45901e-07
1.44647e-06
8.18503e-08
5.3515e-14
2.68793e-10
0.000277135
0.371251
0.000121827
0.0112815
1.17733e-09
0.984211
1.03362e-05
3.8308e-05
0.0118056
1.10597e-05
2.7427e-06
0.39339
1.64635e-09
2.48529e-10
1.43125e-06
1.5901e-09
1.55565e-06
0.0110731
1.82773e-07
8.34095e-15
8.00302e-08
0.000309224
7.83237e-06
0.000307045
9.36895e-16
1.16388e-09
3.17072e-11
0.999994
0.0053296
0.560253
2.56062e-08
0.00026484
1
6.21491e-05
1.22569e-09
7.1784e-06
4.79855e-09
0.0001969
2.77383e-05
1.12773e-07
0.0128844
3.27672e-15
1.26553e-06
1.41763e-09
0.0117806
8.00534e-08
0.996731
4.72051e-16
1.58776e-09
2.74238e-06
1.41757e-09
3.99245e-11
0.00301825
8.24108e-07
0.996738
0.00104341
0.0592188
0.0143788
2.56682e-11
0.000479751
0.0665391
3.81381e-05
8.03889e-08
7.50811e-08
6.37815e-15
0.0478305
1
1.24629e-09
1.8544e-06
8.0037e-08
1.11737e-08
2.24009e-11
1.91747e-08
8.50111e-06
1.41076e-06
0.00539387
2.06402e-08
1.65006e-09
8.20112e-08
8.30521e-15
0.394521
8.29179e-05
3.85212e-09
1.05454e-10
4.59606e-11
4.60173e-09
0.0029775
2.72479e-05
0.0110804
1.95151e-13
8.0037e-08
0.998025
4.96553e-05
8.37361e-06
0.000191964
0.425565
5.00008e-08
0.000308746
3.28923e-05
6.99968e-08
1.81102e-10
8.32131e-05
0.992363
2.80104e-07
0.120171
5.61699e-05
8.02077e-08
3.44795e-17
4.71909e-16
1.31203e-07
0.000116243
1
3.34095e-12
0.0110731
8.27691e-15
0.00501912
0.00026942
1.22569e-09
8.12217e-08
4.53018e-09
0.00020523
6.38596e-05
1.42746e-09
0.0383063
1.15503e-09
0.000100623
1.21173e-09
3.27567e-07
1.25848e-18
1.04261e-05
8.58088e-12
6.34016e-06
0.851166
2.80213e-09
8.83108e-05
1.57733e-09
0.118354
2.33625e-06
0.0125441
8.47921e-06
0.0043207
0.000479751
6.77481e-10
0.242621
0.0410752
1
0.0172949
2.69111e-08
0.133249
1.61088e-12
0.000410355
1.22219e-05
0.996032
2.49531e-09
2.83152e-06
3.91307e-05
6.91261e-06
0.979704
2.21341e-21
5.07206e-06
3.03537e-17
4.2923e-06
9.89934e-05
1.4953e-06
2.29331e-07
3.54388e-07
3.443e-10
2.20528e-05
1.54153e-06
6.42255e-07
0.00217786
8.03889e-08
4.31629e-06
7.00891e-09
3.94188e-05
0.391186
1.15748e-06
8.19205e-05
4.84712e-07
2.61057e-08
1.20148e-13
3.65918e-05
0.000418585
1.16755e-18
0.00866635
1.53138e-09
1.38398e-09
0.011144
5.62886e-06
0.120173
0.0125441
1.47967e-10
0.000479769
0.0141709
1.29788e-07
0.00440284
4.93085e-11
0.831824
4.06627e-05
0.130532
2.04661e-08
3.70381e-08
2.64766e-11
2.74921e-12
1.49352e-08
1.24629e-09
0.000391325
8.47921e-06
1.60096e-07
9.78485e-05
9.32959e-11
0.999994
1.352e-18
1.42893e-20
9.23102e-09
9.42362e-05
1.46222e-08
6.20049e-08
0.00124872
0.00833041
0.010024
2.74332e-12
1.67631e-10
0.995977
0.996013
0.000283212
1.05512e-05
0.000133617
8.47921e-06
0.00484873
2.38317e-06
0.000352711
5.19171e-10
8.52041e-08
4.28136e-06
3.75589e-12
6.77289e-07
1.89219e-06
2.49531e-09
3.87955e-05
2.30285e-06
0.0425658
0.00130621
6.37506e-12
9.36272e-06
4.28136e-06
2.18771e-06
1.49806e-08
8.96917e-05
1.00924e-06
0.000375065
0.000115021
1.6122e-06
0.0113002
0
4.1386e-05
0.00145222
2.5514e-12
0.995916
6.02645e-07
0.48507
0.000492711
0.000373689
2.03615e-09
5.27281e-09
0.92519
1.47967e-10
0.000376607
0.000201426
1.69603e-12
1.62353e-08
0.00051825
0.322573
0.0665391
0.00653302
3.35861e-15
1.47551e-07
1.44841e-08
3.45372e-07
0.00051825
1.35988e-09
2.03079e-11
5.26207e-08
0.000241415
7.14156e-09
2.06986e-08
2.16826e-13
1.46183e-08
0.128889
9.20459e-05
0.000491608
0.00726391
1.91473e-14
8.31457e-05
2.04394e-05
0.00195178
2.32737e-06
7.02167e-10
4.28136e-06
0.129307
1.73442e-11
0.371541
0.373451
9.52239e-06
0.0665361
0.0015193
6.77062e-11
0.000122404
0.000974664
2.36381e-06
0.0664327
8.65181e-08
2.92994e-11
1.53607e-11
8.44075e-05
2.49531e-09
0.000284536
4.76012e-15
3.51879e-16
3.35537e-10
1.86666e-11
2.68874e-06
0.00033993
9.20355e-05
0.00254778
5.9783e-12
1.03399e-12
0.995949
0.00051825
4.5129e-08
0.560737
0.995977
0.000377431
0.000200843
3.01598e-17
0.00179208
0.000514937
2.70137e-07
0.969678
3.91805e-09
8.13968e-13
2.68828e-06
1.25529e-09
9.78485e-05
2.2857e-07
0.0156669
8.94531e-11
0.155878
1.26329e-07
3.40538e-08
0.850218
1.01865e-18
0.00178644
0.768958
0.513939
1.65222e-08
-1.88258e-15
0.000205962
7.7307e-07
0.00344641
0.00497657
0.387884
1.54747e-05
1.25072e-09
6.15717e-09
0.943313
2.1039e-05
1.73442e-11
1.78779e-11
0.000375061
4.59884e-08
0.00509749
3.9312e-07
9.25836e-05
0.665924
0.000825685
4.04232e-08
0.000598751
-1.47083e-17
0.00054475
4.75477e-05
0.314717
2.47782e-06
7.15468e-12
1
0.00173513
0.000285007
0.0546413
3.48803e-11
1.70331e-08
3.52039e-09
0.000657529
1.92362e-09
0.000289083
0.00254965
1
1.09422e-15
2.24145e-10
0.00032678
3.97684e-05
0.0693401
8.65118e-08
8.59589e-05
0.227572
3.8354e-09
0.000161584
2.14574e-11
0.999838
0.994274
3.93817e-08
0.00254778
0.000384375
0.229555
2.10236e-06
0.0516432
0.0178308
2.06485e-05
-1.49584e-16
1.83636e-11
0.000897266
5.89934e-08
7.92994e-12
4.77226e-11
3.47382e-10
7.09992e-12
0.000676271
3.60591e-10
9.30955e-05
3.33353e-08
4.02518e-10
3.50688e-08
0.983471
0.995916
1.04072e-06
0.000199711
2.06943e-08
0.000869139
0.00801637
2.22578e-07
0.000950807
4.82534e-10
0.000287302
3.13277e-11
3.81257e-06
7.80021e-13
0.999974
1
3.44799e-08
4.53634e-11
0.000331575
0.899866
1
0.000484208
0.0202455
0.00100285
0.000395214
0.000660344
2.56348e-11
2.08393e-05
1.17194e-13
0.270843
0.000388101
-3.13883e-14
0.00254965
5.94569e-09
8.62759e-05
0.00134566
0.137733
0.00109424
2.95728e-10
0
0.904015
4.77497e-13
-8.41645e-16
3.93817e-08
8.65185e-08
1.25669e-07
0.00254965
-8.6638e-13
0.00041983
1.88121e-11
1
1.83471e-08
0.013522
5.47313e-12
5.01131e-08
3.98743e-07
0.000158795
1.52968e-12
3.93817e-08
0.00252513
1
3.89247e-05
1.62043e-13
-9.43215e-15
1.10024e-10
1.01732e-11
0.000725725
7.13425e-12
4.59448e-14
1.90864e-14
6.68945e-06
0.00197176
1.07944e-11
8.35339e-11
0.000518676
-1.08301e-12
1.85402e-07
0.00803575
3.79361e-13
2.6154e-11
-6.39501e-13
0.000185664
8.95507e-08
2.72771e-07
-5.86721e-14
7.79658e-12
0.000403662
2.99706e-09
4.60552e-09
0.00102547
3.23047e-08
3.93704e-07
0.0665128
4.11654e-12
0.0451362
2.32364e-06
4.9102e-15
1.17661e-15
1
0.000826244
-2.99547e-12
0.545314
3.96186e-07
4.45701e-12
0.00801637
3.34297e-09
0.000158759
7.71826e-12
1.05847e-11
0.000306905
3.03071e-17
-8.03152e-14
6.00859e-13
-3.30249e-15
0.873991
0.831123
0.901935
1
-2.57711e-12
0.989434
2.6064e-05
5.2004e-09
4.02718e-08
3.75925e-10
5.05977e-08
2.0391e-07
0.483877
1.63581e-07
2.97523e-07
2.97791e-07
2.30667e-06
2.12389e-12
1
-1.94379e-18
4.00747e-08
0.0004058
0.00118599
0.00970619
0.0274311
0.00701621
1.30385e-07
0.876311
1
1
0.00904948
6.29709e-05
1
1.50299e-10
0.00177544
0.350088
0.00092923
1.57436e-11
0.00408539
5.01537e-13
0.608489
0.00499806
0.000160436
0.648819
2.07641e-13
-2.06351e-12
1
-5.21701e-17
0.00645986
8.31341e-08
0.342419
1.16956e-07
3.93817e-08
-7.69901e-14
0.00245935
9.47529e-14
2.21818e-06
1.06282e-06
5.2449e-07
0.0122478
9.94376e-13
0.999997
7.31485e-09
5.17345e-12
1.1465e-07
0.0592238
9.86352e-05
0.666898
1
0.00736748
4.6002e-10
2.33775e-12
3.01029e-06
0.000164361
5.07125e-09
0.00131714
2.05414e-10
2.0191e-06
-3.70487e-16
3.58769e-12
5.97034e-13
0.548716
-1.02142e-12
-6.53771e-14
2.828e-11
1.29853e-13
5.98251e-13
7.0899e-06
0.0125571
7.66135e-06
2.11889e-07
0.0833789
3.01773e-07
6.339e-05
-5.76591e-15
-1.05682e-12
1.41408e-12
5.98592e-13
0.00770438
4.34935e-13
1.10081e-06
2.63709e-07
0.209556
1.89526e-07
0.000165283
8.08943e-13
6.94782e-06
3.81038e-06
1.02234e-07
-5.72932e-14
2.2142e-07
5.41624e-10
9.148e-07
7.45071e-15
1
2.35216e-10
1
7.05372e-07
0.56735
2.17031e-07
1
-1.20045e-12
5.05603e-12
-1.72543e-15
0.000413432
1
6.92594e-05
9.60735e-09
1
0.832424
0.876182
0.442689
3.70664e-05
2.33705e-12
4.17118e-12
1
8.39281e-13
1.18735e-12
0.404077
9.76734e-06
0.921211
0.000146434
2.57034e-07
1.63647e-09
0.000276313
0.000171007
0.921301
-9.70718e-15
0.00776731
2.28016e-05
1.87015e-06
2.53781e-13
2.20938e-07
1
0.0143791
6.06528e-13
1
0.0101056
4.83368e-05
0.00904948
0.000229733
5.97034e-13
0.00670965
7.06531e-06
5.90901e-11
0.00134734
0.000409169
2.60332e-13
0.621079
0.00521045
0.00657192
2.23914e-07
2.17564e-07
0.000409169
5.96743e-13
0.000189841
9.06893e-05
4.03407e-13
0.486275
0.716135
0.716135
0.00740759
4.46212e-06
3.29089e-07
0.000474359
-9.90403e-14
4.31998e-05
1
-8.33118e-13
1.65734e-06
0.000525019
-3.72659e-13
0.865717
0.486299
1
0.0077127
2.81755e-15
0.000123271
0.831386
5.86086e-14
3.39758e-06
2.2935e-05
6.72144e-13
3.271e-07
0.0220327
0.0552572
1.08608e-07
0.00053488
0.214513
1.35695e-07
0.00775713
0.000384946
0.000197028
1
-2.54387e-13
2.97344e-13
5.22347e-09
0.149783
6.55875e-15
8.41504e-08
0.000159925
0.000525019
4.13015e-06
1.46327e-13
2.26917e-07
5.2807e-07
1.69254e-05
0.406335
6.57216e-07
4.27035e-13
5.98219e-05
0.806749
2.37284e-12
0.00778315
8.03556e-11
0.931342
0.985678
1
1.31634e-12
4.79751e-07
3.462e-05
1.35411e-05
8.23859e-12
0.000760028
1
0.826942
-2.01426e-14
8.55046e-06
2.06637e-11
4.14604e-12
3.82817e-07
6.27797e-12
8.99099e-06
2.80805e-14
4.7069e-07
-9.5114e-15
-1.43011e-14
-5.07467e-14
0.622085
8.28252e-06
-1.81111e-14
3.35242e-06
1.02581e-11
0.000138489
3.20318e-12
0.000580129
4.18007e-13
1
9.19193e-07
0.00775701
0.859151
3.33456e-06
-3.10274e-14
0.804996
4.41967e-11
1.01263e-05
0.000215435
-1.06006e-12
4.79751e-07
6.12919e-10
2.18351e-07
1.19089e-11
2.59846e-10
-5.78115e-13
2.89947e-15
3.46717e-07
-2.0544e-13
3.7715e-09
8.54355e-06
1
3.326e-06
4.94639e-13
3.40087e-06
-3.14606e-14
7.10822e-05
2.42904e-11
0.920795
0.920795
2.62863e-11
1
4.07473e-06
2.08329e-11
1.26842e-12
8.66815e-12
8.68769e-06
0.000806177
2.85503e-14
3.15618e-12
1.18874e-11
4.79693e-07
1.68964e-11
4.8012e-07
4.75023e-13
1
1
4.53332e-06
2.42503e-11
6.00595e-13
0.940963
7.25907e-05
0.000793862
3.9629e-08
2.63496e-11
1.34219e-11
0.000691006
3.29803e-11
0.00693149
0.0076897
6.87875e-06
2.01721e-06
4.78345e-07
1.65333e-06
-2.78852e-14
-1.16106e-14
0.000162875
1.45858e-13
0.000808572
8.99099e-06
3.41834e-06
0.940554
4.8012e-07
2.96963e-11
5.96831e-07
1
1
1.17835e-11
3.5109e-05
4.28949e-12
3.63393e-14
3.63269e-14
1.64394e-11
1.76264e-11
0.000217807
9.56256e-12
0.000136492
6.87993e-13
2.06473e-11
8.14753e-05
2.48401e-14
4.79535e-07
-3.14447e-14
8.62757e-05
0.000785242
3.12909e-13
0.000806177
5.58269e-06
1.27354e-06
2.17527e-11
-3.30552e-14
2.06529e-11
1.17767e-13
4.80331e-07
7.52215e-13
0.000211181
0.000189211
2.86144e-05
0.00524619
0.00543568
0.00543543
2.48931e-11
0.742767
2.06891e-11
1.40402e-05
2.50372e-05
2.1866e-11
7.69809e-14
9.08814e-14
6.91814e-14
4.51533e-14
6.91876e-14
0.000571929
3.80011e-16
0.000807542
0.00018967
1.13971e-12
9.7039e-13
6.96431e-12
2.45342e-05
9.24228e-17
0.000185745
7.13045e-05
0.000372425
3.44086e-15
7.80013e-16
5.13784e-06
2.13155e-11
1.16021e-11
1.20225e-06
2.96118e-18
2.5345e-17
0.000323287
-2.6323e-14
2.75368e-24
2.75581e-24
3.67735e-24
2.53528e-17
3.43903e-15
1
1
2.05999e-32
1
6.89638e-18
1
0.000488977
0.000240348
7.96012e-05
0.000434293
0.00431643
0.00525645
0.000753045
0.000700406
0.00643656
0.00263813
4.37581e-18
4.21349e-18
4.51473e-14
2.75368e-24
2.75368e-24
2.15423e-14
2.15468e-14
2.68437e-19
0.000169052
0.000939583
0.000977245
0.000980419
0.000950292
0.000951015
1.30317e-13
7.79917e-16
2.39304e-12
7.96693e-15
2.16196e-11
8.69304e-12
0.743602
0.689958
1
0.608358
0.964503
0.689926
0.939282
1.17034e-07
0.000492677
0.937342
0.689926
0.999996
2.36521e-12
0.999999
0.342394
0.689926
0.999966
1.00655e-07
1
0.995354
0.000134673
1
0.320334
7.16302e-05
1
0.100965
0.0694263
1
1
1
1
1
1
0.294465
0.979944
1
0.931075
0.969889
0.969889
0.999991
1.18978e-05
9.43014e-06
0.800394
1
0.488621
1
1
1
0.407501
7.50264e-13
0.96976
1
0.999996
0.865586
1
1
1
1
1
1
0.999999
0.999991
0.993375
1.16562e-05
0.969889
2.15199e-13
1
0.969889
0.00188205
0.969889
1
0.800394
1.18978e-05
0.91469
1
6.33755e-06
0.969889
1
0.887838
0.634912
0.865645
0.000971426
0.978139
0.000352639
0.121687
0.425139
0.00256406
0.88767
0.999999
0.861106
0.212629
0.000364206
1.17174e-05
1
1
1
0.000422248
3.3588e-07
1
0.00348843
0.00213595
1
0.000993419
0.00348859
0.373396
0.000141434
0.373318
0.878106
0.969889
1
0.000476456
1
1
0.000977558
)
;

boundaryField
{
    patch0
    {
        type            zeroGradient;
    }
}


// ************************************************************************* //
