/*--------------------------------*- C++ -*----------------------------------*\
  =========                 |
  \\      /  F ield         | OpenFOAM: The Open Source CFD Toolbox
   \\    /   O peration     | Website:  https://openfoam.org
    \\  /    A nd           | Version:  8
     \\/     M anipulation  |
\*---------------------------------------------------------------------------*/
FoamFile
{
    version     2.0;
    format      ascii;
    class       surfaceScalarField;
    location    "0.65";
    object      alphaPhi0.water;
}
// * * * * * * * * * * * * * * * * * * * * * * * * * * * * * * * * * * * * * //

dimensions      [0 3 -1 0 0 0 0];

internalField   nonuniform List<scalar> 
2805
(
-1.64187e-10
-4.97975e-06
9.34517e-06
0
-9.86724e-11
-1.76259e-11
2.90897e-13
1.70497e-11
-1.76231e-11
-5.05815e-15
-5.04097e-11
9.38655e-08
-5.69995e-09
5.71511e-09
-5.09608e-09
-3.91972e-10
-1.87472e-06
1.17179e-06
-1.82443e-05
-3.88135e-07
-1.19426e-13
2.97573e-13
-2.28898e-05
4.96752e-06
-1.397e-05
-8.64847e-06
5.01107e-05
-0.000187395
0.000155633
-1.1286e-05
3.20227e-06
-9.18363e-06
1.80528e-06
-4.69646e-07
1.45827e-07
-1.39805e-05
6.67244e-05
-2.13973e-05
-4.56405e-08
-2.78757e-06
-6.48114e-05
8.18235e-05
-4.74342e-08
1.68297e-09
0.000262408
-0.000113723
-0.000148685
7.12156e-08
6.26265e-08
-2.9248e-07
-9.52949e-06
6.23773e-06
3.31497e-06
-2.88249e-08
-1.86957e-08
-1.88896e-11
3.84261e-08
-2.39381e-09
1.99268e-10
2.38407e-09
0
-9.05946e-12
5.06706e-11
-3.11308e-13
4.37599e-11
-2.97669e-11
2.61433e-08
-4.56831e-08
-3.5506e-09
4.26474e-09
-5.19841e-07
-2.22127e-05
-1.46172e-05
-1.34989e-11
5.428e-12
-4.28677e-07
2.39213e-07
-8.65354e-06
1.05759e-06
4.19125e-05
-1.30001e-13
1.23239e-10
2.10104e-06
4.14654e-06
-1.88839e-12
0
-9.85823e-12
-8.42251e-13
-4.83445e-09
1.04112e-09
-1.72265e-05
1.06925e-12
-2.98572e-12
0.00010577
0.000156638
2.00312e-10
2.83606e-05
-3.31842e-05
1.24695e-13
1.09237e-12
-1.17628e-12
-3.54007e-08
4.69065e-07
-1.36753e-08
8.21604e-05
-2.03349e-14
-3.94041e-06
2.9181e-13
6.96405e-13
-9.81658e-13
6.92121e-05
-0.000436296
0.000367083
-0.000186134
0.000131683
5.44503e-05
-0.000113679
-0.000797886
0.00116132
-7.0023e-05
-8.44755e-09
2.24787e-08
7.64191e-05
-9.23852e-09
-6.06377e-07
5.61466e-07
4.42652e-08
-3.34655e-13
3.5971e-05
4.56418e-13
2.98029e-13
1.48415e-13
2.23276e-05
1.89486e-06
-1.93029e-08
6.59074e-05
3.7519e-05
-3.02311e-06
1.44234e-06
0.000740064
-0.000647581
4.89317e-09
-3.20107e-07
3.15178e-07
-1.77737e-07
7.62438e-05
-1.70564e-15
6.49563e-13
3.44605e-06
-5.1176e-07
-3.80264e-07
1.12046e-05
-9.07736e-06
5.66755e-11
7.56033e-06
-0.000311409
8.81198e-05
-7.29416e-06
-4.00149e-05
6.85581e-10
-1.24312e-06
-1.43305e-10
3.08116e-14
4.23625e-09
3.08635e-14
-2.8383e-19
1.24174e-05
-2.94645e-07
-6.35385e-08
1.29892e-15
-2.30759e-15
-3.11252e-16
3.14604e-14
-4.27153e-13
-3.17063e-13
0.000764529
2.45825e-14
-3.2791e-14
1.68075e-15
0
-7.89196e-09
-6.95079e-11
-1.02526e-12
8.11226e-11
-5.44717e-05
-5.72029e-05
-7.35865e-05
1.52658e-05
2.29635e-06
-1.94745e-13
7.73751e-09
4.64454e-07
-0.000116922
0.00014951
5.2704e-05
1.16682e-05
0
-1.21052e-05
4.44345e-06
6.67477e-08
8.99799e-08
-8.92119e-08
2.02335e-09
0.000244
-3.2509e-05
1.50939e-07
-5.63732e-07
-2.4186e-15
4.35678e-15
8.91892e-10
-8.91872e-10
9.96948e-06
1.30009e-05
1.50825e-05
3.23659e-06
-4.24678e-11
4.8298e-11
1.32381e-13
0.000115729
-4.21034e-06
2.82862e-06
-1.97759e-05
-2.00129e-06
6.30075e-08
-2.3981e-09
-4.40338e-17
3.00003e-17
2.65537e-17
-3.90087e-11
8.75254e-12
5.82918e-11
3.62397e-08
1.18106e-12
-4.1811e-07
2.59876e-06
-9.02915e-09
-4.55995e-15
4.0338e-15
9.02766e-09
-5.50539e-11
-4.0838e-11
0
-3.60219e-07
-2.49469e-07
-1.33808e-15
-4.25164e-13
-7.67661e-05
2.54855e-05
-4.57008e-14
4.34213e-07
-5.48276e-08
3.16694e-07
-2.3584e-07
-1.61896e-07
-3.18657e-15
0.000127796
-0.00018053
-0.000688216
0.00068337
4.84536e-06
-1.70018e-05
-6.88284e-06
4.52017e-09
-5.17601e-07
1.56829e-08
1.28113e-07
-1.38798e-08
6.04806e-06
-1.62616e-08
5.1466e-17
-1.16208e-16
-4.25653e-13
-0.000184654
0.00054497
-0.000360316
-1.54241e-15
-5.45004e-16
0
-6.76969e-06
1.77288e-05
-1.13236e-05
1.79084e-11
1.20169e-06
1.38698e-08
-5.98294e-11
2.44696e-11
-3.82915e-12
1.12247e-09
-2.95431e-08
-4.20854e-14
3.70736e-13
0
0.000154653
-0.000154051
-1.50098e-06
2.82235e-07
-2.10742e-08
2.08501e-08
-0.000365377
0.000180723
1.2733e-06
4.5422e-06
6.66781e-08
-2.675e-07
1.66536e-07
3.99685e-08
-6.39056e-08
6.38594e-08
-0.000688216
-3.15524e-07
2.27579e-05
-3.17235e-09
2.68904e-09
-1.22391e-08
-4.09429e-10
3.0575e-08
0.000629445
5.39255e-05
-1.81559e-13
-2.11584e-11
2.14131e-11
-8.07457e-11
1.1523e-05
-1.33453e-05
-1.15574e-06
2.45084e-07
-2.71278e-08
-1.85145e-07
-0.000678658
-9.55802e-06
-1.92021e-08
5.15639e-08
-3.75738e-08
-5.39084e-11
2.53917e-11
-4.5451e-10
0.000225675
0.00040377
-3.1601e-16
-2.16907e-15
-6.06843e-11
1.92515e-10
1.84569e-07
-5.46843e-06
2.24434e-06
-2.71868e-17
-2.78841e-17
-6.16086e-06
-3.4938e-15
1.13689e-06
-1.30483e-06
1.83814e-07
-1.61832e-06
-2.60937e-05
-1.90931e-06
2.73295e-06
1.42546e-06
-7.31693e-06
3.2842e-07
1.36221e-11
5.22283e-12
-1.98819e-11
-2.09952e-09
4.90922e-06
-3.18049e-14
-1.89778e-13
2.5379e-13
-5.96266e-11
6.08477e-11
-7.59949e-05
-0.0003603
0
-2.42408e-14
7.67963e-06
-7.4759e-08
1.04283e-12
2.4159e-10
-2.43696e-10
-6.52409e-16
-4.23585e-09
4.30173e-08
1.25624e-06
4.96954e-08
-1.17958e-05
-2.11576e-11
-3.55821e-16
-1.17939e-05
3.44354e-09
-3.52313e-09
-0.000678658
1.75824e-11
2.54014e-12
-1.96498e-11
-1.31401e-08
5.46459e-07
1.69912e-10
-1.32479e-08
1.42965e-08
6.15872e-08
-8.94809e-05
1.54343e-10
-2.14638e-10
7.45667e-06
-1.91273e-05
1.34942e-11
-2.07215e-05
8.97061e-06
1.25458e-06
2.71602e-05
3.04629e-05
2.05094e-05
-0.000688827
1.0169e-05
2.47608e-12
-7.06006e-08
-7.35346e-07
2.67648e-08
-5.56209e-10
2.03204e-09
7.88783e-09
2.50908e-16
-1.10786e-06
1.442e-06
-2.18729e-08
-1.3221e-05
-5.1638e-17
-4.70562e-19
0
2.31798e-14
0
-3.67254e-06
1.19605e-08
-1.38652e-05
-2.83653e-13
3.02799e-12
-2.49267e-08
2.48346e-08
1.83044e-17
-1.22044e-15
1.58959e-16
1.24099e-10
-3.18817e-09
1.49475e-08
-9.48259e-12
7.74456e-07
3.43073e-06
-1.48489e-08
1.44235e-06
1.69773e-05
1.72251e-10
1.21871e-12
-1.54704e-12
8.74171e-06
3.00685e-07
-1.1937e-05
-1.49921e-05
5.23094e-06
5.45212e-09
-5.39527e-09
-0.000688827
0
-1.2426e-09
0
1.24461e-11
-5.02676e-08
1.68088e-07
1.66826e-05
-8.4287e-08
2.03958e-05
6.53281e-06
1.15205e-05
3.91062e-06
-7.75884e-06
1.51402e-15
-1.95341e-16
-2.62903e-17
1.21324e-13
-0.000471729
-0.000217098
-1.87569e-09
1.33594e-10
-2.13035e-10
-2.95685e-16
-1.78921e-16
-1.05195e-05
-7.5787e-07
-1.10025e-07
1.13393e-07
-8.70437e-10
9.3414e-10
0
-1.73935e-11
-2.14156e-08
1.58928e-11
0
1.14798e-05
-2.58605e-06
4.38829e-16
-6.61009e-10
6.73656e-10
4.30592e-19
-1.31149e-18
0.000233639
-7.7001e-05
1.18004e-17
-1.87352e-18
1.63755e-08
0.000151464
8.01703e-09
5.12713e-09
-2.51282e-07
0
6.14656e-09
1.79208e-10
-1.15313e-08
1.59342e-09
-1.64564e-08
-1.41024e-14
-1.94458e-14
-2.4616e-08
-4.57929e-13
1.64672e-12
2.48651e-09
3.05539e-10
-3.43343e-05
-0.000471729
8.20996e-06
1.9021e-11
0
-5.54531e-05
-0.000102743
-2.4925e-08
-8.00277e-13
-0.00054497
7.32411e-05
-2.98573e-08
8.42985e-09
-7.10608e-10
8.71485e-08
-8.92876e-07
2.31562e-10
6.47369e-10
2.96579e-12
-3.38027e-12
-1.10181e-05
-9.074e-07
7.99358e-05
2.86152e-08
1.74687e-08
-1.0921e-05
1.77614e-07
8.40287e-06
1.51906e-05
-1.11176e-19
-1.17645e-05
-1.61699e-09
5.47933e-08
-1.3212e-07
3.74448e-07
-1.11974e-06
1.09841e-08
-3.56127e-08
3.50564e-13
1.96968e-12
-2.36352e-12
0.000237652
-4.01327e-06
-6.50077e-07
6.68982e-07
1.67702e-07
-1.12608e-12
6.07175e-05
1.82076e-05
2.20969e-06
-5.09127e-10
2.26023e-10
1.92499e-09
-7.75454e-11
-1.19685e-09
-5.69337e-16
0.000398384
-4.46843e-11
-1.88903e-08
-3.15785e-06
4.61076e-10
1.53573e-10
8.8872e-09
-3.91421e-09
-2.6444e-07
1.57673e-07
2.1267e-07
1.03865e-12
-1.01366e-11
4.46407e-15
-2.14857e-14
6.37638e-15
9.89387e-09
1.795e-10
-2.79851e-15
-5.91958e-06
2.39795e-06
1.69589e-08
1.05855e-08
-2.57177e-08
9.39965e-10
3.03485e-10
-3.39571e-08
4.65377e-19
-9.31554e-19
-3.9428e-10
3.9799e-10
-1.77287e-08
-1.87446e-06
-7.00624e-06
-1.15844e-10
-4.72061e-15
-1.71764e-05
-2.20287e-15
-8.21493e-07
1.85578e-08
0
8.72569e-06
-1.22451e-07
1.31003e-06
-1.21729e-05
-2.42624e-07
5.22547e-08
-1.67803e-06
1.13513e-08
1.56634e-05
-1.68253e-06
3.80401e-08
-2.61926e-09
-5.69373e-07
5.25712e-07
1.15751e-07
-6.9604e-06
1.11152e-05
9.79032e-18
-3.72605e-16
-0.000216248
0.0004229
-0.000206652
-2.9114e-08
1.02121e-08
2.02814e-07
2.62771e-08
-2.09189e-08
1.35367e-07
-4.6647e-07
-2.57713e-09
-1.22862e-05
5.38263e-07
-1.69881e-08
-2.53324e-08
9.13179e-09
3.74516e-08
-8.16449e-06
1.8352e-08
4.5683e-06
2.65794e-07
-9.10055e-11
2.20376e-12
-3.06001e-06
3.80717e-06
-1.41694e-08
-1.48845e-11
2.521e-11
-6.71802e-08
1.18654e-08
9.92055e-06
-1.63442e-05
4.17026e-06
-2.43629e-05
-1.09383e-05
-1.25693e-05
1.38152e-05
-5.31584e-06
2.84889e-07
-1.92065e-06
-3.12165e-07
-4.86596e-20
-2.6804e-13
0
3.11766e-08
-1.87736e-10
6.80198e-06
2.72782e-19
-1.41389e-08
2.60348e-06
-1.51431e-05
6.7112e-10
-5.2888e-12
2.05044e-12
-1.40616e-08
8.04168e-10
-1.32139e-07
-1.83803e-06
1.02447e-07
-5.44306e-10
1.1648e-05
-7.94456e-06
-8.90381e-10
-1.79109e-09
-0.000244781
-0.000120597
8.06973e-20
-1.56974e-19
7.55763e-08
6.37075e-06
1.75143e-08
0.000225675
-2.75507e-08
9.78379e-09
2.80777e-15
-4.97018e-14
4.57726e-14
-3.23918e-08
1.3396e-07
-1.5611e-05
6.77046e-07
5.17371e-10
1.56877e-10
-1.82643e-08
-1.08621e-08
-9.87174e-06
-1.64256e-10
0
-4.68363e-08
6.64743e-07
2.11745e-14
-4.07739e-14
1.14597e-05
-1.08762e-05
7.99361e-06
-1.56475e-05
4.591e-06
1.9661e-15
-2.22711e-07
4.79079e-06
-2.62288e-08
-1.77526e-14
1.45923e-05
2.74079e-06
-2.70152e-06
1.18796e-08
-3.93255e-08
-1.2016e-17
-5.70815e-17
-3.8047e-12
6.8556e-10
1.32482e-10
0
2.42105e-05
-1.07541e-06
-1.84362e-08
-1.13053e-14
2.75442e-07
2.4134e-07
-2.07561e-10
-1.24071e-07
-1.3171e-07
1.06866e-05
-1.26743e-08
0.000414452
-9.84533e-05
-0.000283847
-3.86997e-08
2.60362e-05
2.96423e-08
3.056e-07
-4.84451e-06
-1.17025e-11
7.66832e-06
-7.23567e-06
-1.65212e-06
-2.25458e-07
-1.39101e-05
-7.14364e-07
-6.22418e-20
-3.58204e-13
-2.21414e-08
6.32548e-09
2.47915e-07
2.91762e-10
0
-4.72884e-06
2.64748e-06
2.84681e-07
1.25639e-12
7.31129e-23
-1.87753e-10
-2.54529e-07
1.17859e-06
6.0408e-08
2.25841e-07
-5.0246e-07
3.47994e-10
1.98496e-15
-9.56708e-15
8.67695e-06
-1.90587e-05
3.64666e-05
0.000339755
2.12682e-08
2.31165e-06
-1.12385e-07
-2.6281e-08
0
-7.86428e-09
-2.17138e-10
-1.6129e-11
-3.02861e-08
0
5.83427e-06
-2.85956e-06
6.56994e-10
-1.36886e-10
2.39248e-12
-6.05168e-16
-5.34841e-14
3.28488e-06
1.68237e-06
-4.29808e-19
-4.01491e-10
1.55119e-09
-3.05163e-08
1.50093e-08
7.58663e-08
-7.82812e-09
-1.23856e-09
6.42277e-11
-6.37653e-09
-1.82364e-09
-9.5713e-08
-2.58467e-09
0
1.89641e-05
2.27849e-05
-9.64438e-06
1.27441e-08
-2.84808e-07
1.04707e-06
-7.81598e-07
-8.00454e-13
0.000410438
5.82311e-08
4.50018e-10
-3.91969e-10
1.42324e-08
-2.49672e-07
2.76351e-14
-5.77249e-14
-1.47013e-08
-4.14908e-08
2.30038e-08
6.05781e-06
-8.67882e-10
7.45572e-07
-3.41697e-08
-1.02336e-08
1.86797e-09
4.68611e-05
-1.99961e-05
1.14376e-05
2.8557e-11
-4.68584e-08
-1.14482e-05
5.19119e-07
3.72618e-07
-7.66735e-08
6.52459e-10
0
1.87656e-10
-4.72354e-08
7.83094e-20
-2.25521e-19
-1.9898e-14
-4.70048e-08
-4.46996e-12
-8.796e-09
0
-2.45586e-09
2.72274e-05
-8.91585e-12
-3.74021e-08
-8.67567e-10
4.2543e-08
-7.08738e-11
-6.92686e-09
1.53484e-14
-3.53123e-14
-1.19891e-13
-7.55098e-13
3.96719e-10
5.1113e-16
-1.91695e-16
-7.98777e-07
3.83147e-05
2.06357e-05
-3.7112e-10
8.39307e-11
-5.49299e-09
8.90971e-08
-1.77259e-08
-1.08449e-08
5.17269e-10
6.08181e-06
9.23531e-06
1.23678e-06
2.32986e-05
-9.02835e-10
-1.01551e-09
-3.07063e-09
-1.24798e-08
1.29964e-06
3.79332e-05
-1.7988e-05
0
0
-5.30749e-07
1.4247e-06
-5.02765e-05
0.000830429
-4.13874e-20
3.37569e-14
-1.04957e-13
1.31459e-07
-2.76287e-08
-2.81789e-12
0
-3.04074e-09
-2.60453e-07
-3.73654e-10
-6.7885e-09
-5.74335e-07
-6.48803e-06
3.53226e-06
-3.26371e-07
2.5412e-07
-5.08932e-10
4.7909e-10
-2.84718e-11
0
-4.19863e-07
1.41633e-05
1.93625e-06
0.00107044
9.09464e-05
-7.10854e-06
7.96355e-06
1.61059e-10
1.87925e-05
2.90931e-08
5.89547e-10
-2.38898e-07
4.88652e-08
-4.03632e-06
-8.77603e-18
-3.67944e-10
1.3993e-14
0
-3.79344e-14
7.50824e-07
3.58116e-07
-6.59019e-09
4.5488e-09
7.14059e-19
-5.35603e-19
-2.85749e-09
-3.13326e-10
-1.46463e-06
1.90526e-06
1.52579e-05
8.40056e-08
-7.26191e-08
1.50085e-06
-1.54482e-06
6.71209e-06
-8.91377e-06
-1.46322e-08
2.60655e-10
-4.73585e-08
-4.22945e-09
-9.0958e-05
0.000239459
0.000193642
-1.15244e-06
2.86019e-09
4.15024e-05
2.84943e-05
3.67854e-14
-5.99398e-14
-5.56184e-07
3.10229e-05
-9.40336e-06
4.08198e-10
0.000183502
5.29518e-06
0.000979491
0.000923234
-2.11359e-13
-1.30296e-09
-1.11648e-16
2.8004e-17
-7.4363e-10
1.20041e-07
3.22406e-08
-2.78136e-06
2.71933e-06
-5.64736e-06
-2.54396e-08
0
-1.71616e-09
-1.34484e-09
4.86019e-10
2.71318e-11
-9.76395e-09
-7.35836e-09
1.72436e-19
-8.36593e-19
-5.62405e-06
0
-4.04153e-05
0.00014539
1.40098e-05
-1.58878e-10
7.82608e-06
-7.76472e-13
-3.18646e-15
0
3.45838e-09
-7.99578e-09
0
4.18974e-06
-4.8611e-08
7.41481e-05
0.000242295
-1.30263e-07
1.96795e-07
2.90323e-14
-1.6816e-13
-1.98656e-15
-3.89499e-07
3.58382e-05
-1.62667e-05
-4.28909e-09
-5.87544e-09
3.40694e-17
-5.02411e-06
6.97108e-06
-5.57455e-09
0
3.77812e-06
-5.71436e-07
-8.24974e-10
1.94669e-10
8.908e-07
-8.35666e-09
-1.23154e-16
1.98476e-06
4.61201e-10
7.13347e-05
0
9.61528e-07
-4.53603e-08
1.43835e-08
-9.4996e-14
-8.39189e-09
-1.0699e-07
2.82618e-08
3.09431e-10
1.21969e-09
4.18375e-07
-8.014e-08
-7.40114e-12
3.50398e-11
-8.10484e-09
3.81568e-11
4.03417e-06
-2.05517e-07
2.42714e-08
-3.42545e-07
2.91541e-08
-6.09699e-11
-2.55245e-08
0
-3.11383e-06
-8.81941e-10
-1.10737e-09
-2.16141e-07
3.69881e-07
-2.86009e-19
2.39002e-06
1.36122e-05
-1.07118e-06
-1.18752e-06
0.000719256
1.12813e-18
4.97377e-14
-1.21951e-13
-1.91022e-09
-2.80336e-10
3.01522e-05
-1.52479e-05
-1.44201e-10
4.20551e-10
-1.23926e-11
5.32871e-10
0
-3.23186e-10
6.59531e-19
-1.00359e-17
0.000308031
0.000102309
-9.35184e-09
-1.21971e-14
-4.067e-08
-8.93883e-10
7.92912e-10
-7.33447e-05
0.00099754
7.20039e-06
-4.09545e-07
-8.62483e-09
-9.37479e-15
-4.8511e-09
-2.39231e-09
-3.27534e-09
-7.14282e-11
-8.52649e-12
2.73666e-06
-2.18124e-09
-7.84579e-12
-1.20128e-10
0.000313403
-0.000136634
-0.000176768
7.58558e-15
-1.20724e-13
5.78888e-06
-2.11711e-06
-6.9153e-08
-1.29269e-06
2.02285e-07
-2.38308e-07
1.22155e-06
-9.7874e-06
6.27045e-08
4.08176e-06
2.50758e-19
-6.02271e-19
1.20588e-09
0
-1.48013e-08
1.09494e-17
-4.2713e-15
-1.23914e-06
6.82522e-06
-1.76025e-08
7.6043e-09
1.59501e-05
-0.000100973
0.00108048
-4.91782e-09
-1.92126e-08
1.82737e-09
8.89153e-08
-8.84331e-14
4.16048e-10
4.56909e-11
3.59563e-10
0.000871296
-1.47725e-08
0.00010753
0.000205873
2.17223e-05
-6.19534e-08
-1.78458e-08
-1.86365e-09
3.5392e-07
1.34294e-07
-2.53513e-08
0.000108978
-0.000165416
-4.43268e-20
-1.44494e-09
8.22415e-10
-7.71815e-19
1.18376e-06
-4.24197e-06
-3.04309e-10
2.43629e-05
5.55731e-05
-0.000400081
0.000669747
7.673e-07
4.5313e-06
1.45079e-13
-2.76084e-13
-1.45343e-08
2.45333e-05
-7.16779e-08
2.05526e-08
2.19304e-07
0
-7.81432e-12
7.42002e-06
-1.20502e-11
1.24243e-07
3.65553e-10
-3.85163e-12
1.73562e-06
0.00089658
-8.05144e-10
-1.51091e-09
-1.62074e-18
-0.000362194
-1.62964e-08
0.000182454
-1.63149e-05
-4.73465e-06
-1.15222e-06
3.58471e-10
1.78334e-10
8.90707e-07
4.03637e-10
-1.94711e-14
0
-1.14278e-08
6.60109e-13
-1.1342e-11
-1.42513e-08
0
-1.7308e-09
1.70714e-09
0
-8.17306e-11
1.16957e-10
0.00068041
-3.24715e-05
-0.000212309
-4.04348e-11
6.05565e-13
-1.19484e-13
-7.02559e-10
5.44768e-08
-2.52022e-07
1.16375e-14
-2.79808e-14
0
-1.16319e-05
1.051e-05
1.8184e-07
-1.33957e-07
8.48279e-11
1.47883e-09
7.51119e-08
5.74169e-06
9.36297e-07
-1.18547e-09
-5.79813e-09
1.32864e-09
9.27227e-07
1.24518e-07
3.72642e-06
-1.17345e-08
-1.32618e-12
4.33157e-05
1.51891e-14
-3.50911e-13
4.04318e-10
7.84644e-08
-4.0969e-06
-5.12695e-12
5.45443e-06
1.59103e-18
-3.01161e-18
-2.98861e-10
0
3.73887e-08
2.6726e-08
3.41601e-16
-1.77764e-16
-9.45602e-08
-5.78297e-09
1.22127e-09
4.88943e-09
-2.87546e-07
-2.35491e-07
1.6881e-05
3.60295e-07
-1.44339e-07
0
-3.1229e-09
0
7.6902e-09
-1.16544e-16
-7.80946e-15
1.43688e-08
3.55097e-08
-5.1484e-08
-3.15499e-11
1.83067e-06
-4.50417e-07
-1.2075e-06
3.20908e-08
-8.10708e-07
-1.44304e-10
3.40911e-10
4.18954e-18
-6.18743e-18
-1.18118e-10
-3.10644e-09
-1.03199e-11
-6.4648e-09
-2.72444e-09
3.16903e-10
4.79606e-17
-8.54686e-19
2.38898e-13
-2.19741e-13
-1.44807e-13
0.00069229
-0.000864499
2.10949e-06
-3.20659e-11
-9.67089e-06
3.81121e-05
-5.93448e-12
2.24857e-12
9.70626e-06
0.000884449
2.50293e-08
1.4501e-09
-4.52965e-08
-6.93864e-06
2.26123e-05
0
-5.2846e-09
-2.25606e-08
0.000203545
-6.01279e-12
-2.59647e-12
-1.5848e-14
3.78618e-09
-1.67222e-12
-3.50664e-12
-4.19019e-09
3.38085e-07
-3.53783e-10
3.35329e-10
6.64875e-18
-8.52633e-18
3.7809e-10
2.58078e-11
1.17795e-06
-1.9715e-08
-3.87932e-10
2.04902e-08
4.36434e-07
-3.11089e-20
-3.18008e-12
-2.743e-12
2.19303e-14
-1.98415e-14
0.000494828
-0.000494828
-1.66562e-05
0.000921161
-0.000906805
-1.2226e-09
1.51713e-10
2.39156e-06
3.22929e-09
0.000187521
3.25987e-07
1.09198e-07
-2.25129e-12
1.088e-08
-5.80929e-11
9.04616e-12
1.87172e-07
-1.10816e-08
-1.36764e-10
-7.06917e-10
-1.79312e-05
6.1278e-06
-7.0197e-21
-2.13877e-09
-5.16718e-12
-1.13294e-13
1.30494e-05
3.15211e-10
9.07906e-11
3.95129e-05
0.000856279
4.34716e-19
-5.19898e-20
-2.16465e-12
-1.16533e-08
-6.64592e-12
4.69823e-14
3.93422e-16
-1.0691e-05
9.59088e-06
-4.33439e-09
-3.75347e-11
0.000923156
6.44647e-07
5.05173e-05
2.08474e-05
-1.47369e-15
1.7761e-06
-7.75645e-05
-9.52629e-05
0.000176739
1.75249e-10
1.4891e-10
1.51508e-11
-1.06582e-22
1.55919e-05
-5.55731e-05
-6.13484e-05
2.4432e-12
-3.17928e-09
3.67564e-09
3.46378e-10
-3.27118e-11
2.34563e-15
-1.69098e-10
9.9273e-12
-4.61526e-09
2.71204e-08
-6.73734e-11
-1.17583e-05
-6.75689e-11
-2.60475e-12
3.44724e-11
3.77816e-09
7.54307e-18
-1.23307e-16
5.60227e-05
0.000139996
2.0477e-08
-1.63617e-07
1.34306e-12
-4.54684e-12
-2.1356e-15
7.75489e-14
-3.36159e-14
-2.53181e-11
9.653e-12
-9.46428e-08
-6.05199e-10
8.54421e-08
-1.71151e-05
1.69709e-05
-5.67478e-20
3.41508e-10
-2.53719e-05
0.000705797
1.06562e-07
5.54871e-09
3.07476e-08
-4.37316e-07
2.16564e-10
9.94481e-07
0.000576329
6.60591e-10
-2.77161e-10
-3.33268e-09
2.86442e-08
8.78267e-12
-4.09021e-15
2.03732e-07
0
0.00082707
-8.84936e-10
-4.01864e-10
1.0846e-05
2.23265e-08
2.69873e-10
3.14628e-20
-9.68174e-21
7.0152e-21
-4.91249e-10
-1.09271e-07
3.20383e-07
-6.58657e-05
0.000254096
-0.00018823
3.34254e-15
-3.89999e-15
3.22825e-06
-1.82952e-19
-6.28083e-12
3.10518e-12
2.01457e-10
-2.22999e-11
-1.25136e-08
3.74852e-07
-3.21025e-07
1.18076e-06
-2.41934e-12
-4.40178e-12
8.95369e-06
-5.40362e-12
2.6464e-12
1.338e-08
-2.12248e-07
-4.78059e-12
-1.04849e-10
1.21966e-21
-1.52015e-21
2.50849e-07
-4.62211e-08
-9.28341e-16
3.62772e-09
0.000907355
-0.00023811
-2.70486e-11
8.86845e-08
-3.91106e-11
-9.4627e-05
0.000159098
-9.95168e-09
2.51382e-09
-1.19664e-05
2.61799e-05
1.2178e-08
2.31905e-06
-4.24888e-07
-4.42188e-14
-8.50408e-13
2.29231e-05
4.09993e-06
-2.08409e-12
1.0577e-10
8.3018e-06
-6.50006e-07
2.38804e-16
-2.9486e-15
2.12221e-06
-3.49188e-07
1.78982e-08
-2.36073e-08
0.000302527
0.000618137
-6.98868e-11
-4.7793e-12
5.94012e-11
-1.19937e-08
1.14123e-07
1.53308e-08
6.14796e-09
0.000948686
4.50949e-24
-3.236e-23
1.13541e-06
3.46551e-10
-1.62907e-21
1.67329e-08
-1.59527e-07
-5.39922e-10
-1.01789e-09
7.5704e-11
-1.38636e-09
2.30083e-09
-3.42672e-14
-6.9019e-13
0
-2.13347e-09
-9.64139e-10
-8.14274e-06
3.10803e-06
2.10552e-10
6.66253e-11
-1.69357e-10
1.88523e-08
-2.54358e-12
-3.3224e-11
3.78575e-07
0.000210831
-0.000151767
-6.34338e-09
3.21588e-09
1.7056e-07
2.21075e-08
-2.74251e-11
-4.65888e-18
1.50804e-07
3.66734e-08
6.84477e-07
-7.70812e-23
2.6999e-05
1.32744e-05
3.81093e-12
-1.7317e-12
-2.93864e-12
1.74022e-05
3.68743e-07
-0.000138505
0.00015108
1.61965e-05
-2.8099e-13
1.81714e-06
-1.3701e-09
3.12667e-10
-2.47027e-06
4.3161e-14
-3.65419e-14
0.000119872
0.000196087
-4.36209e-08
3.04751e-07
9.44033e-05
-2.47344e-10
5.21075e-11
-1.3278e-10
-7.83065e-12
-4.67629e-16
3.04079e-15
-6.35077e-15
-9.43298e-11
4.09168e-12
1.81981e-06
-1.35814e-08
2.33137e-08
4.18545e-12
-2.67999e-10
-2.31716e-07
7.44387e-08
8.07021e-16
0.000418833
1.01346e-21
9.29509e-21
-1.921e-19
-6.86856e-12
-5.3524e-12
9.46178e-07
-2.43545e-11
-4.52417e-11
0
-2.4867e-06
6.26056e-07
2.2509e-06
-1.66102e-16
-4.85161e-14
0.000517726
0.000307235
0.00113376
6.44255e-07
-2.48931e-06
1.84708e-07
9.81005e-08
-3.05908e-06
0.000110257
-4.16661e-09
3.15856e-08
-2.5415e-13
-1.20052e-10
1.27546e-09
1.18042e-08
3.25955e-15
-2.17968e-15
3.43519e-09
1.02826e-09
5.84038e-09
-1.6759e-11
1.70887e-07
-6.59355e-09
1.76968e-10
-1.92385e-05
0.000145053
-2.43228e-06
3.23937e-06
3.44508e-15
-7.37219e-09
1.64823e-08
-2.88455e-10
-7.60091e-12
-2.87246e-08
3.09102e-07
-8.93569e-11
2.38013e-09
-1.04297e-07
4.36654e-07
-7.40981e-09
-2.65442e-09
2.97052e-06
9.26273e-21
-3.82948e-10
9.12825e-08
-1.51351e-07
5.66435e-06
1.46275e-19
0.000267488
0.000679064
-4.65074e-11
3.85262e-09
0.000418825
4.64636e-08
1.41137e-06
-2.6784e-07
-9.11203e-11
-2.49468e-11
-1.95247e-11
0.00028655
0.000376574
-1.46629e-12
3.37959e-13
1.44148e-06
-1.01825e-07
2.20239e-06
2.91537e-15
-5.57549e-15
-2.73695e-11
-2.85872e-12
8.9773e-07
5.31123e-08
-6.83718e-05
-9.8062e-05
-8.93416e-05
-7.60613e-05
0.000169207
-1.90296e-07
9.29709e-06
5.38351e-19
-3.37848e-18
-7.66164e-10
-8.95092e-11
3.82419e-10
-1.0075e-09
1.94385e-07
4.54538e-07
2.58235e-12
-6.38269e-12
1.9942e-14
-2.60101e-17
-1.77249e-15
3.66175e-10
-1.81449e-06
1.53111e-06
-4.30033e-11
-1.74152e-10
-3.35368e-11
-0.000159816
0.000272095
4.07117e-07
-6.57932e-07
6.99444e-07
2.62973e-06
3.60931e-07
-7.19461e-18
1.65804e-17
8.77756e-08
1.88048e-07
-8.53979e-08
9.09509e-07
-8.47414e-07
-2.80929e-06
7.66327e-07
-5.26183e-09
9.02078e-09
4.99896e-13
-1.17746e-13
9.59267e-08
0.000116328
9.71949e-15
-6.49034e-14
-0.000534717
9.10838e-05
2.07856e-06
5.62268e-14
-4.0152e-14
1.18768e-06
1.69412e-06
1.44121e-06
-1.46792e-10
4.19551e-05
-2.79096e-10
1.72356e-10
2.32617e-15
1.23438e-14
-2.32713e-14
1.25967e-07
-7.21182e-12
-1.67677e-11
7.37407e-07
-4.19993e-18
5.33102e-20
-1.04794e-13
5.95371e-15
-2.78207e-13
-7.84493e-09
3.98962e-09
5.95689e-07
1.17948e-07
7.37697e-06
-2.37233e-17
1.03781e-15
-1.62375e-16
-0.000741867
0.00141896
2.52161e-07
-2.99091e-11
0.000389779
-8.57086e-07
5.96136e-07
-4.94755e-07
8.30155e-07
4.52648e-20
-2.77531e-20
-9.25203e-07
6.43615e-06
-1.93341e-07
-5.24386e-10
6.79769e-10
-0.000165261
0.000111364
5.14203e-05
-3.79866e-11
1.5001e-18
-3.65936e-09
-3.6568e-12
-1.11218e-12
-1.34645e-07
-1.27802e-10
0
8.0497e-05
-2.10009e-14
-8.54991e-12
1.73439e-05
-1.22454e-06
-2.04921e-10
1.74629e-10
3.30437e-11
8.54867e-21
1.90321e-21
3.79271e-06
0.000155281
-0.000216496
8.32335e-05
3.94702e-05
0.000754468
-1.43197e-10
-2.18732e-18
1.16918e-17
-1.27529e-07
-4.02535e-11
3.41763e-06
3.63859e-07
7.17042e-07
0.000485777
-1.57972e-12
-3.18868e-11
-2.21594e-11
-0.000284856
0.000204704
0
-1.14691e-13
-6.73324e-14
-2.4522e-07
-2.89962e-10
9.63331e-11
1.27083e-06
-1.46986e-09
8.92551e-10
9.90482e-08
3.22017e-07
-0.000221911
0.000555131
-6.03154e-07
3.68336e-06
8.91534e-09
8.96855e-11
1.73513e-06
1.908e-07
-1.44013e-20
5.46757e-20
1.34137e-07
2.56294e-06
2.46968e-07
-6.53256e-05
3.63608e-09
-7.14069e-10
-1.37454e-13
2.77484e-14
0.000165434
-0.000197905
6.52253e-06
-1.88483e-06
2.23956e-06
3.491e-05
7.82723e-06
-4.80405e-13
-6.15326e-10
1.53151e-10
-5.68249e-11
1.18437e-06
-8.08293e-08
-3.4605e-12
-5.66587e-11
-1.7965e-06
2.52262e-06
2.1437e-07
7.17686e-06
9.76261e-05
-0.000163492
2.72122e-19
2.20883e-13
-1.6802e-12
-2.50482e-06
3.03985e-06
0
-5.29262e-08
-5.60209e-05
0.000249239
-1.09191e-10
1.28257e-08
2.37491e-05
-3.43096e-14
5.09453e-11
3.61299e-08
2.90847e-14
-1.98906e-14
-5.52549e-05
-2.6616e-10
1.12379e-10
6.6691e-06
-4.45581e-06
3.43172e-06
8.1673e-05
-2.93345e-09
7.06417e-05
8.25586e-06
-1.56768e-19
4.11222e-19
1.41072e-15
-3.70165e-06
9.99598e-06
-7.28904e-10
-3.43912e-14
2.04957e-15
-2.44567e-14
-1.55193e-12
-8.09426e-16
-1.05487e-14
8.80172e-07
7.95766e-07
-1.37655e-11
1.31168e-06
3.36787e-11
5.54668e-13
-6.29785e-14
-1.11641e-10
-2.38706e-10
-0.000987527
0.0018137
0.00042927
-6.34578e-11
3.47846e-09
-2.67127e-06
1.86089e-06
-4.37873e-11
4.8898e-11
4.8183e-06
-1.24508e-06
-9.36214e-10
-1.03167e-08
1.5649e-15
2.44925e-07
6.14831e-14
-2.46617e-13
2.42758e-09
2.84513e-16
-6.88463e-16
0.00025356
-0.000133317
0.000360316
-0.000194882
-2.71437e-10
6.71464e-14
-7.50469e-14
-6.35024e-09
0.000116926
6.54776e-07
7.47607e-05
-0.000156501
0
-6.26855e-07
3.35123e-06
-7.73267e-07
1.77667e-06
-1.7905e-14
1.13658e-07
1.13525e-09
1.12793e-19
2.55591e-05
0.000527194
2.72116e-06
-3.15784e-06
-4.00885e-17
7.59119e-17
2.00372e-07
6.33643e-06
-1.32673e-11
3.25653e-07
1.57948e-06
3.95038e-07
0.000373207
-2.93108e-06
2.63787e-06
1.56717e-13
-3.85008e-12
2.5739e-17
2.79108e-16
-0.000612001
0.0010605
-1.57998e-15
-9.34185e-19
2.02443e-18
-1.24777e-10
2.07454e-10
-2.42105e-10
1.4627e-10
-2.85111e-10
-3.45285e-10
7.39149e-06
-2.11633e-15
2.71722e-15
-1.15024e-06
-1.31653e-13
0.000253981
-0.000156355
-3.61756e-10
4.68695e-05
-7.07209e-15
1.616e-14
-5.73965e-15
1.75551e-09
-7.31699e-10
-1.7956e-06
1.63793e-06
-1.9421e-11
-7.15478e-06
1.39493e-05
5.60754e-05
-1.94071e-10
4.44211e-08
2.08208e-15
-5.80303e-15
-3.54713e-19
-9.77553e-13
-2.00628e-07
2.68729e-06
-2.91593e-14
1.45976e-14
6.58964e-17
1.98305e-07
2.12525e-06
-1.32013e-14
1.75497e-15
-2.54456e-13
1.5736e-05
-7.76803e-06
-3.94195e-15
3.58584e-15
-1.22479e-09
2.49214e-06
-1.78783e-05
-9.94764e-16
3.40705e-14
-4.00864e-13
1.23423e-16
-7.13718e-07
-8.69042e-10
4.2577e-10
8.60187e-17
-3.41634e-15
1.92424e-06
1.99197e-13
-2.21453e-11
-4.05227e-11
6.72189e-06
-6.10076e-10
1.33941e-09
-1.78727e-05
1.93955e-15
-4.97329e-15
4.43037e-05
-6.13217e-09
3.43567e-09
-1.00608e-18
4.17869e-05
0
1.21386e-14
-1.05233e-14
-1.81618e-09
5.15369e-10
-2.60134e-14
-7.11893e-07
-4.35597e-11
-1.33672e-06
1.80002e-06
-8.5011e-17
-4.02664e-11
1.56998e-15
-3.45808e-16
-1.89723e-14
-7.38892e-15
1.57997e-15
7.24019e-18
-3.87478e-18
-0.000165447
-0.00148663
0.0020465
8.67233e-05
-0.000250215
4.132e-16
0.000350228
3.65752e-07
1.42014e-08
-7.09315e-11
5.6384e-12
-7.88743e-11
1.19231e-09
5.27389e-13
-3.92175e-12
-8.52405e-16
-3.61549e-09
-2.35532e-09
3.0227e-09
-7.00529e-10
-1.73118e-09
-4.56262e-16
0.000217327
-0.000130604
1.12363e-10
1.23352e-05
2.55757e-06
-0.000143345
9.87364e-05
0.000216976
-0.000423229
-9.28005e-05
0.000155299
-4.20247e-10
-2.3641e-09
-0.000985018
0.00135711
-0.000142685
-0.000263435
0.000130118
-0.000168467
0.000186461
-1.63228e-07
2.34482e-08
0.000194882
-0.000138807
-1.02154e-12
-6.27381e-06
7.81793e-07
-2.53463e-09
0.000136857
-4.24658e-05
4.11384e-05
5.34892e-14
-2.08178e-13
-5.16459e-05
9.6054e-05
4.18027e-17
-0.000140596
1.78288e-05
0.000135283
-0.000109376
0.000124046
1.36997e-07
-0.000178014
2.48137e-05
-4.09099e-15
-8.92481e-15
9.7473e-16
-0.000134543
0.000145387
5.53546e-10
-3.7114e-12
0.000156619
0.000308945
-1.97529e-09
5.27102e-10
5.21972e-15
-2.94243e-16
2.58507e-06
-1.28295e-15
3.32812e-17
-9.42264e-09
-1.44896e-08
7.29545e-09
-1.75719e-07
1.6436e-07
-2.29932e-11
1.63254e-09
0.000117402
-9.15487e-05
3.33819e-15
-3.52474e-15
-5.87296e-05
2.08803e-12
-1.15907e-10
6.27633e-15
-2.41737e-15
-1.44373e-09
0.000327823
1.21154e-07
6.09722e-05
-0.000150622
0.000155362
-7.87815e-12
1.10788e-15
-1.95264e-14
-2.39805e-08
-5.48403e-07
2.62522e-06
-5.9185e-11
0.000208228
1.26794e-12
-1.98261e-12
-3.98189e-08
3.59661e-16
-1.98245e-15
1.22183e-15
0.00250259
-0.000863323
-0.00152209
-4.8704e-15
1.3159e-15
-8.64643e-17
6.72026e-17
-3.48321e-13
-3.33629e-17
3.41877e-16
-4.31159e-16
-2.73438e-08
-3.02851e-08
9.71195e-05
-4.95689e-05
5.60779e-09
0
3.46959e-10
1.12857e-09
0.000369749
-0.00116589
7.44603e-11
-6.20888e-09
-6.07227e-10
1.15857e-17
5.11568e-16
-3.24149e-15
4.63648e-16
5.63917e-12
-6.20987e-16
-0.000157214
0.000158267
4.60327e-17
1.07353e-09
2.29198e-09
1.42667e-08
0.00145164
-0.0018302
-6.10254e-08
5.9964e-08
1.19812e-06
1.9952e-16
-3.89769e-08
5.00813e-09
4.88007e-20
1.15686e-09
-8.43863e-11
4.1424e-11
-6.21368e-08
-1.2317e-18
9.28088e-05
-0.000235494
3.42401e-11
0.000185902
-9.30933e-05
-3.29374e-10
0.00141322
-3.19986e-09
-4.74935e-15
1.92515e-14
-5.85015e-14
-5.96966e-07
4.11945e-07
0.000138807
-7.78346e-05
-3.95755e-07
1.58462e-08
3.02224e-12
-1.76693e-10
5.52986e-05
-0.00128774
0.001584
0.000152805
-0.000260096
-5.54759e-08
-2.29817e-07
-2.65045e-15
-9.09203e-15
-0.000118568
-1.74641e-15
9.61287e-17
-7.33068e-16
0.00226393
-0.00266252
1.87789e-09
-2.06103e-07
0.00203119
6.74986e-05
1.70574e-07
-2.0659e-06
0
7.33179e-09
-2.12306e-11
-8.43498e-07
5.99731e-07
0.00239305
-1.63327e-17
-1.31555e-17
-0.000159713
0.000160545
-4.61701e-07
8.07469e-09
-7.2295e-17
4.62827e-17
-2.46989e-10
1.3959e-09
-0.000204237
8.56684e-05
-1.17967e-15
1.34402e-15
-0.00016281
0.00010408
1.18306e-07
-7.97897e-07
-1.18029e-06
-1.64155e-15
1.16226e-15
-1.18788e-07
2.61066e-12
-1.02657e-12
1.63651e-06
-2.1947e-06
1.7118e-16
-1.56877e-16
0.00296985
-0.00306762
8.74717e-10
7.57055e-09
-1.44357e-07
-2.76036e-16
-6.70499e-07
3.02185e-06
-5.91886e-08
2.83101e-07
-3.65603e-17
0.000168283
-4.79158e-05
-0.000140296
0
6.89771e-11
0
-7.93924e-09
4.12521e-06
-6.68495e-06
-2.31961e-16
5.76643e-16
1.2935e-08
7.78346e-05
-2.2536e-05
4.19393e-15
-2.7845e-15
-5.52699e-09
1.84628e-08
-5.39e-06
5.43445e-06
1.93222e-15
-1.04601e-15
0.00335255
-0.00222514
0.000841344
-0.00037048
-7.41187e-05
7.26689e-17
3.05704e-17
-2.28446e-06
8.50437e-18
1.11686e-06
-1.72817e-08
9.12894e-07
-2.66577e-07
1.84711e-16
-1.37171e-15
4.84645e-10
-1.34465e-09
-6.09414e-07
5.1488e-10
-3.42048e-15
-0.000161011
0.000162676
2.80691e-07
1.99231e-06
-5.53256e-15
1.55562e-11
-8.74852e-11
1.01999e-18
4.7658e-13
-3.10126e-08