/*--------------------------------*- C++ -*----------------------------------*\
  =========                 |
  \\      /  F ield         | OpenFOAM: The Open Source CFD Toolbox
   \\    /   O peration     | Website:  https://openfoam.org
    \\  /    A nd           | Version:  8
     \\/     M anipulation  |
\*---------------------------------------------------------------------------*/
FoamFile
{
    version     2.0;
    format      ascii;
    class       volScalarField;
    location    "0.65";
    object      epsilon;
}
// * * * * * * * * * * * * * * * * * * * * * * * * * * * * * * * * * * * * * //

dimensions      [0 2 -3 0 0 0 0];

internalField   nonuniform List<scalar> 
1924
(
0.0283685
0.0330059
0.0518916
0.052169
0.0364795
0.0547645
0.0550436
0.0570888
0.0572171
0.0484582
0.0580449
0.0580797
0.0242506
0.0585747
0.0561443
0.0558727
0.0288067
0.0585614
0.0243803
0.0586343
0.0158054
0.0604884
0.0394897
0.0584171
0.0623558
0.0616117
0.0609225
0.0407157
0.0401234
0.0328429
0.0392792
0.0631019
0.024011
0.0315464
0.0431257
0.0424121
0.062557
0.0432969
0.0282607
0.0364414
0.0626294
0.018134
0.0626024
0.0351253
0.038747
0.0363723
0.0259714
0.0432705
0.00919645
0.0111414
0.0194548
0.0216622
0.0590462
0.0150889
0.0371946
0.0466744
0.0237221
0.0406577
0.0395751
0.0550542
0.0350323
0.0556308
0.0284364
0.0253838
0.0160745
0.0447151
0.0549774
0.0456378
0.0404163
0.0192538
0.016806
0.055414
0.0264015
0.0353608
0.0368978
0.0352356
0.0463104
0.0389032
0.0428874
0.0283067
0.0521571
0.0594138
0.0373436
0.0162157
0.0250976
0.0478753
0.0418295
0.0564531
0.00932959
0.0162838
0.0550444
0.0573297
0.0377414
0.0460655
0.0197389
0.0183991
0.0481499
0.0541797
0.0551474
0.0300096
0.0528642
0.0189128
0.0556185
0.056201
0.0467469
0.0439589
0.0533698
0.0461243
0.0553198
0.0467391
0.0499013
0.0480287
0.0425764
0.0365061
0.0430649
0.0135357
0.05311
0.0557824
0.056974
0.0457191
0.0206918
0.0277319
0.0126415
0.0128597
0.0550109
0.0529929
0.0384102
0.0394757
0.0483674
0.0524447
0.0501268
0.0536926
0.217812
0.0378058
0.0213371
0.0527964
0.0488737
0.0495547
0.0583403
0.0437266
0.0447788
0.0551899
0.130141
0.177281
0.0557063
0.0261158
0.0468102
0.0268033
0.0556732
0.0576132
0.0350846
0.0549452
0.0376883
0.0562946
0.0559026
0.0533979
0.027877
0.0494825
0.0524712
0.256044
0.0356366
0.0353039
0.0564684
0.0289983
0.0310102
0.0535525
0.0567871
0.0355651
0.0457617
0.0532215
0.0273987
0.0577186
0.0437571
0.0553673
0.0466579
0.0475455
0.0332496
0.0555394
0.0433127
0.0581082
0.0570347
0.0561478
0.0404409
0.0570884
0.00881033
0.0311063
0.0405446
0.0593338
0.0483043
0.0377988
0.0465289
0.0578093
0.0528522
0.0581618
0.0587365
0.0581821
0.0604361
0.0487265
0.0531238
0.0488447
0.0842677
0.0345248
0.056051
0.0584958
0.0335558
0.0573778
0.0586522
0.0385017
0.0316355
0.165842
0.0309853
0.0536474
0.0580422
0.0589935
0.0596434
0.0421087
0.0558033
0.0475619
0.0586197
0.03871
0.0529323
0.0375246
0.0569738
0.0576387
0.05854
0.0607158
0.0548477
0.0473067
0.0595139
0.0500275
0.184526
0.0550779
0.0536473
0.0876875
0.0604139
0.260222
0.0576988
0.0586111
0.058037
0.0618293
0.0561243
0.0572209
0.0577373
0.0417909
0.16218
0.0280751
0.058739
0.0483322
0.040552
0.0452325
0.0346242
0.0387984
0.0597049
0.0561414
0.0484102
0.057203
0.060179
0.0576631
0.0534826
0.0585666
0.0568869
0.0586934
0.0550415
0.0424787
0.0634517
0.0352776
0.0167734
0.0418078
0.0373238
0.0670042
0.0502101
0.0350793
0.0289481
0.0602791
0.0551679
0.051866
0.0587647
0.0605254
0.0564527
0.0533991
0.0695802
0.0926407
0.0551963
0.0592959
0.018973
0.0375223
0.0551425
0.0473356
0.0584142
0.0577295
0.0590985
0.0299207
0.0595436
0.0572656
0.0112852
0.0314282
0.0568504
0.0400095
0.0396706
0.0570722
0.0857152
0.0579588
0.0568925
0.0559393
0.0587907
0.0616169
0.0187445
0.0564839
0.0583179
0.0399243
0.0314399
0.0574855
0.0592821
0.0609971
0.0508354
0.022385
0.0572343
0.0583414
0.059255
0.0590189
0.0326703
0.0512836
0.0583048
0.0334831
0.0616301
0.0491356
0.0597045
0.060831
0.0498235
0.0563406
0.0540385
0.0551502
0.0612972
0.0587298
0.0365019
0.0589673
0.05524
0.0589881
0.0585878
0.0589064
0.047609
0.0352837
0.0631378
0.0433937
0.0565715
0.0553806
0.164108
0.0550448
0.0583158
0.0620505
0.0625408
0.157025
0.110907
0.0566865
0.0278906
0.0441163
0.00926734
0.0578899
0.0584607
0.0180669
0.0576462
0.0567882
0.0564165
0.0553298
0.0628397
0.0587967
0.0634906
0.0516658
0.0582384
0.0587987
0.0548497
0.0593036
0.0612587
0.056206
0.0567442
0.0315237
0.0566343
0.0563716
0.0632366
0.055086
0.0552883
0.0420291
0.0601439
0.0599516
0.0539177
0.0544719
0.0350997
0.0553579
0.05747
0.0586995
0.129731
0.0624638
0.0609751
0.0552325
0.0583891
0.197372
0.0600185
0.0636524
0.056249
0.0556949
0.0294211
0.0380234
0.0426984
0.0392552
0.07745
0.0554991
0.0530977
0.0552347
0.0598134
0.0603819
0.0566986
0.0627389
0.0577328
0.0584926
0.0574806
0.0558744
0.0502028
0.0563671
0.0521469
0.0504215
0.0563371
0.0529061
0.052335
0.0316657
0.0618021
0.0549105
0.0510043
0.0308068
0.0641075
0.0550356
0.0555641
0.0490953
0.0551293
0.0615
0.0579624
0.0551761
0.0542157
0.0136908
0.0582072
0.0620274
0.0546957
0.0569702
0.060182
0.0253685
0.0550693
0.181837
0.0557897
0.0360828
0.061297
0.0555183
0.0562516
0.0644844
0.0598056
0.0566332
0.0575505
0.0610304
0.0527244
0.0564891
0.0617246
0.0552399
0.0460849
0.0634207
0.0255013
0.0598286
0.0457389
0.0554889
0.0552513
0.0570014
0.0580224
0.0405074
0.0592545
0.063606
0.0320502
0.052211
0.0536402
0.0443677
0.0292281
0.0571284
0.0549572
0.0556872
0.0553131
0.0574866
0.0557437
0.0550768
0.0640565
0.0594133
0.0551215
0.0559583
0.0553745
0.0529159
0.0159809
0.0552011
0.0638556
0.0528316
0.0550674
0.0506552
0.0550418
0.05573
0.0552946
0.033055
0.0544881
0.0564412
0.0548395
0.0609592
0.0316899
0.0556
0.0561094
0.0569538
0.0650883
0.0522795
0.0401679
0.0498415
0.0557029
0.0598796
0.0554877
0.0552917
0.0615943
0.0610545
0.0575936
0.0554836
0.0626624
0.0561107
0.0473472
0.051662
0.0590354
0.0598775
0.0320949
0.037387
0.0570106
0.0562592
0.0610746
0.056926
0.0654459
0.0491047
0.0457902
0.0548257
0.0570242
0.0553774
0.0313925
0.0581481
0.0644723
0.0317277
0.0308699
0.0380705
0.050364
0.0553863
0.0305281
0.0245552
0.0547163
0.0562648
0.055218
0.0558867
0.0559207
0.0645045
0.0552714
0.0513053
0.0416691
0.0219038
0.0302765
0.0304504
0.0586597
0.0628116
0.0396408
0.0558439
0.0559247
0.0512765
0.0460367
0.0536623
0.031203
0.0652293
0.0497957
0.0557418
0.055401
0.0556703
0.0331384
0.0549838
0.0461331
0.0363272
0.052284
0.0545281
0.061599
0.0547532
0.0573918
0.0554589
0.0175535
0.0364653
0.0547531
0.0578291
0.0478417
0.0337877
0.056111
0.0646739
0.0573125
0.021905
0.0293163
0.0515554
0.0544825
0.0488007
0.0543604
0.0612376
0.0179019
0.054943
0.0558532
0.0237945
0.0659417
0.0564955
0.0591111
0.0421719
0.0512226
0.0577881
0.0563438
0.0563378
0.0485136
0.0529583
0.06276
0.054288
0.0586701
0.0481654
0.0183909
0.0259284
0.0497728
0.0469253
0.0558103
0.0583556
0.056539
0.0308764
0.04317
0.0543505
0.0575344
0.0516329
0.0552754
0.0553761
0.0489412
0.0605622
0.0661961
0.0184824
0.0552889
0.027464
0.0558153
0.0492895
0.0558928
0.0557555
0.0659389
0.0552589
0.054795
0.0558885
0.0594983
0.0554762
0.055858
0.05641
0.063492
0.0555191
0.0482121
0.0576499
0.0451174
0.0550969
0.0620952
0.0401961
0.0551949
0.0533927
0.0540984
0.0376967
0.0314826
0.0476485
0.0545881
0.0270991
0.0558713
0.0549187
0.0651224
0.0665686
0.0638888
0.0436015
0.0183464
0.0542689
0.0558853
0.0470111
0.0568189
0.0557271
0.0307707
0.0485713
0.0518424
0.0524861
0.0535943
0.0536883
0.05664
0.0560926
0.0537793
0.0290234
0.0493735
0.0417238
0.0314027
0.0553605
0.0562572
0.055289
0.0634698
0.0545027
0.0504152
0.0347797
0.0651553
0.0608865
0.0442799
0.0600717
0.0557474
0.0373256
0.0238643
0.0558006
0.0557273
0.0552021
0.0488365
0.0665192
0.0651313
0.0361477
0.0554485
0.0303681
0.0548544
0.056478
0.0550886
0.0618789
0.0546096
0.0145058
0.0326928
0.0536447
0.0419541
0.0456277
0.0554314
0.0354877
0.0490909
0.0210237
0.0481796
0.0470446
0.0545652
0.0549666
0.0276124
0.0626926
0.0528912
0.0549318
0.0529379
0.0559411
0.0526451
0.0607997
0.0293524
0.0538359
0.0430463
0.0773035
0.0573848
0.0797459
0.0670451
0.0473981
0.0665614
0.0465628
0.0576671
0.0538809
0.0565817
0.0219111
0.0240718
0.056976
0.0267728
0.0236323
0.0297234
0.0530032
0.0265001
0.0530032
0.0550108
0.0442326
0.059539
0.0529047
0.0550178
0.0659362
0.0421861
0.0555798
0.0543926
0.0554717
0.0314751
0.0549064
0.0419346
0.0493263
0.0673043
0.0547793
0.0457681
0.055205
0.0590145
0.036595
0.0556823
0.0417546
0.0583725
0.0257308
0.0557059
0.0557444
0.0524625
0.030685
0.0549657
0.0623505
0.0520461
0.0543268
0.0638887
0.0433521
0.0486861
0.0163877
0.0556546
0.0638374
0.0239326
0.0500163
0.0550247
0.0270689
0.038128
0.0555688
0.0210521
0.053821
0.0537313
0.0667674
0.0261481
0.0464153
0.0320132
0.0752198
0.0652816
0.0503729
0.0513269
0.0365962
0.0561047
0.0578117
0.0595286
0.0561204
0.0541386
0.0407854
0.0518075
0.0459608
0.0656267
0.0517641
0.0529296
0.0525261
0.0549888
0.0390643
0.0665529
0.0551927
0.0610011
0.0550119
0.0343502
0.0505031
0.0436922
0.0721975
0.0574435
0.0723084
0.0553974
0.0543255
0.0101903
0.0617482
0.0553515
0.0637432
0.0520671
0.0635468
0.0560653
0.0518349
0.047867
0.0360367
0.0545103
0.0544941
0.0603428
0.0673071
0.0299931
0.0271052
0.0506353
0.0542374
0.0538132
0.0250689
0.0575661
0.0533586
0.0348613
0.0541937
0.0499837
0.0563204
0.0430511
0.0649956
0.0557149
0.0553426
0.0668053
0.0243693
0.0373206
0.0568072
0.0244312
0.0551451
0.0249253
0.0662143
0.0512562
0.0241282
0.0521503
0.0573453
0.0525514
0.0578698
0.0506601
0.0506308
0.0655872
0.0392932
0.0546226
0.0538158
0.0493822
0.0488008
0.0460096
0.0529047
0.0578476
0.0552725
0.0544085
0.0241824
0.0669789
0.0246154
0.0547138
0.0604281
0.0517684
0.0416419
0.0549918
0.0520191
0.0549034
0.0256757
0.0454915
0.210894
0.0286104
0.0516535
0.0457265
0.0543217
0.066617
0.0284566
0.0250133
0.0549219
0.063599
0.031832
0.042977
0.0556669
0.0379367
0.0556205
0.0559207
0.05461
0.0659343
0.0521163
0.0544635
0.0609487
0.0526572
0.042138
0.0487354
0.0629109
0.0543123
0.050552
0.0298643
0.142209
0.0424522
0.014942
0.0759767
0.0530185
0.0646229
0.0517686
0.0519585
0.0536678
0.0576197
0.0565345
0.169014
0.0642228
0.0491081
0.0861355
0.0563307
0.0485664
0.053682
0.0496456
0.0323458
0.0390184
0.0652093
0.057707
0.0350612
0.0510831
0.0537558
0.0603898
0.0545926
0.0394255
0.0309665
0.0658331
0.0259756
0.0543868
0.0548096
0.0248987
0.0505285
0.0540412
0.049068
0.04221
0.0529543
0.053814
0.0544131
0.0653428
0.0540165
0.0490646
0.062184
0.0229016
0.0203937
0.0618459
0.05947
0.0500263
0.0378951
0.0644628
0.0632799
0.0272865
0.059538
0.0477846
0.0477146
0.0556245
0.0540168
0.0482621
0.0574671
0.0486313
0.0640858
0.0449202
0.0541171
0.057692
0.0458026
0.0254298
0.0628883
0.051024
0.0506296
0.0516574
0.0452685
0.0423519
0.0505919
0.0530635
0.0644805
0.0564775
0.049202
0.0529575
0.0487309
0.0472244
0.0285384
0.0314917
0.0500542
0.0636358
0.0487904
0.0394404
0.0298686
0.0270627
0.0551154
0.0418364
0.0476337
0.0284342
0.032039
0.0627451
0.057807
0.0313116
0.0587666
0.0529067
0.053542
0.0568662
0.0475628
0.0496159
0.0540503
0.0383974
0.0537414
0.0538803
0.0489113
0.062671
0.0513653
0.0536772
0.0605377
0.0507401
0.0585318
0.0537718
0.0516379
0.0473686
0.0583777
0.0521365
0.0520285
0.0596663
0.0206128
0.0544798
0.0294041
0.0539683
0.0537131
0.0375735
0.0398871
0.0515491
0.0451137
0.0614042
0.0598279
0.051338
0.047971
0.0864831
0.0464384
0.0599281
0.0550841
0.0506097
0.048653
0.0595767
0.0127988
0.0520415
0.0560672
0.0313964
0.0491546
0.0505811
0.0477065
0.058223
0.0454156
0.0483684
0.0509406
0.0575444
0.0472566
0.0535913
0.0507588
0.0466379
0.0510722
0.0576453
0.0581301
0.054022
0.0480448
0.053524
0.0182004
0.0499466
0.0516314
0.0456234
0.0535698
0.0527968
0.0454657
0.154382
0.153294
0.0580589
0.0544506
0.0588101
0.0457177
0.0574736
0.0533037
0.0508354
0.0517812
0.0474915
0.0451373
0.0418887
0.0440182
0.0465549
0.0571143
0.0456168
0.0296424
0.0452346
0.0453915
0.0521551
0.0556154
0.0561271
0.053203
0.04138
0.0377387
0.0360016
0.0543344
0.0462667
0.143
0.0319829
0.0472324
0.0588172
0.0521416
0.0545257
0.0558991
0.0516023
0.0200981
0.045112
0.0370042
0.0513103
0.0442251
0.052823
0.0484128
0.0534617
0.0450004
0.0332147
0.0470274
0.0492354
0.139618
0.0549142
0.0561114
0.0333309
0.0445712
0.0452857
0.0313069
0.0574922
0.0488135
0.0537603
0.0497584
0.0488451
0.0572171
0.0443036
0.0447578
0.0192579
0.0391952
0.0439988
0.0437951
0.047048
0.0484652
0.051695
0.0451279
0.0541581
0.0869665
0.0580655
0.0512089
0.052982
0.0572682
0.0523398
0.0521186
0.0167264
0.0464122
0.0422581
0.0259893
0.0526768
0.0509948
0.0495369
0.0434157
0.0521462
0.0429754
0.0524878
0.0438915
0.0502004
0.0529173
0.0292306
0.0294264
0.0412335
0.0499129
0.0509958
0.0517291
0.0472548
0.0441759
0.0301962
0.0432621
0.0584062
0.0416599
0.0311991
0.0300398
0.0477648
0.0538128
0.05064
0.0336417
0.0515035
0.0523846
0.0476191
0.0179837
0.058982
0.0410425
0.0562754
0.0465382
0.0448644
0.0408921
0.0399072
0.0418596
0.050711
0.0423943
0.0507811
0.0508156
0.0412574
0.0421217
0.0397255
0.0356282
0.0491327
0.0520067
0.0427569
0.0506847
0.105461
0.0432705
0.0503303
0.0400342
0.0501823
0.0407929
0.0454138
0.0371931
0.0239028
0.0580453
0.0407603
0.0409696
0.0500247
0.138017
0.0256318
0.0574429
0.0499604
0.0467028
0.0503892
0.0490366
0.0454061
0.0516568
0.0365017
0.0474837
0.046805
0.0308721
0.0521262
0.0480157
0.051985
0.0488907
0.0495265
0.0184604
0.0402396
0.035955
0.0953192
0.0395709
0.0597409
0.0474643
0.0441591
0.0401898
0.0525066
0.0358613
0.0513734
0.0392864
0.0260292
0.040516
0.0494919
0.0367598
0.0427498
0.0424312
0.0539827
0.0892616
0.0466563
0.0545445
0.0247595
0.0512691
0.0354472
0.0295119
0.0388289
0.0844539
0.0471647
0.0375806
0.0463651
0.0841351
0.0173262
0.0558704
0.0406844
0.0414387
0.0471857
0.0350616
0.0384232
0.0897006
0.0353275
0.0352539
0.0342893
0.0528976
0.040734
0.0922555
0.0346061
0.0413362
0.0462595
0.0389311
0.0508773
0.0463538
0.0393758
0.0434994
0.0511159
0.0368739
0.0511636
0.0491988
0.0823076
0.0920746
0.0321209
0.0469505
0.0296138
0.133442
0.038565
0.0339794
0.0763052
0.0376601
0.0555743
0.0360942
0.0478371
0.0961321
0.0971293
0.0288012
0.0382955
0.0600013
0.0253554
0.0355568
0.0417075
0.0275583
0.0284231
0.0387359
0.0513747
0.0447661
0.0492652
0.0347309
0.0434196
0.0372965
0.0696012
0.040272
0.0896967
0.0968041
0.0482693
0.0367897
0.0232745
0.102287
0.0473464
0.0470899
0.0515998
0.179853
0.0468736
0.186611
0.03731
0.101823
0.027548
0.0193699
0.192938
0.0494107
0.0554648
0.033642
0.0533936
0.0368587
0.198709
0.0287133
0.203249
0.0360969
0.0332409
0.207126
0.0547827
0.0142151
0.0277674
0.0282523
0.0825264
0.106451
0.209739
0.0430889
0.04834
0.0358326
0.0435523
0.0288589
0.0544343
0.030011
0.03643
0.0570793
0.038073
0.174952
0.0294192
0.0173149
0.0336434
0.0365018
0.0398658
0.0490418
0.0459644
0.156777
0.0223692
0.211257
0.0481956
0.0442655
0.0380487
0.0560416
0.0327884
0.0467862
0.0285976
0.0351793
0.109206
0.0356793
0.0387532
0.0436094
0.073076
0.0305149
0.0277634
0.0305042
0.0372786
0.0369633
0.170591
0.0412766
0.0489334
0.168283
0.0331388
0.0492895
0.0562259
0.0276802
0.0400727
0.0436341
0.212292
0.0285905
0.0439756
0.0506389
0.165093
0.0397416
0.0559927
0.0281024
0.0371936
0.0660546
0.0415338
0.0291818
0.0453881
0.0484138
0.0408153
0.0290283
0.0234735
0.044822
0.0191101
0.0477339
0.0436121
0.0318451
0.0784792
0.0731885
0.07597
0.110211
0.052417
0.0525202
0.0425534
0.0284275
0.0189398
0.105621
0.174988
0.0119861
0.0395707
0.0406956
0.0447464
0.0225598
0.0350763
0.0359061
0.158437
0.0355918
0.0403975
0.0442133
0.0422937
0.0276384
0.0439532
0.0534836
0.0419459
0.0303568
0.213825
0.0404752
0.0434283
0.0301313
0.0459624
0.0173754
0.355982
0.0307687
0.034831
0.366853
0.0402116
0.382014
0.0448178
0.0387437
0.394586
0.0333761
0.0792934
0.404926
0.04848
0.0297256
0.148823
0.413323
0.419757
0.0483247
0.0585756
0.0485986
0.0373829
0.0559277
0.0446978
0.0292661
0.0327779
0.0646557
0.0830892
0.423716
0.0514871
0.0300685
0.0461552
0.071267
0.0440536
0.0459063
0.072257
0.0446705
0.0537106
0.0717765
0.138101
0.0474115
0.0158328
0.425964
0.0706857
0.0392921
0.189684
0.028332
0.0496518
0.0577323
0.034068
0.0459986
0.346846
0.339482
0.0281004
0.044931
0.333148
0.0431331
0.216748
0.0502139
0.0563081
0.0677491
0.146734
0.149327
0.0847246
0.0473193
0.0287449
0.0440881
0.0568337
0.0507472
0.0467329
0.0276034
0.0502838
0.0466855
0.0459909
0.318763
0.0440811
0.0289693
0.052581
0.124876
0.038927
0.428236
0.0462668
0.0335082
0.0478672
0.0315487
0.0348291
0.0453888
0.0576194
0.0625865
0.154399
0.0561629
0.0542761
0.104697
0.0576219
0.0585547
0.0424755
0.038046
0.049038
0.039432
0.0658133
0.0698312
0.0516599
0.0997987
0.106509
0.0289834
0.297818
0.0366392
0.061566
0.0501556
0.0430428
0.0556935
0.0368751
0.0467165
0.0306635
0.0139463
0.043912
0.432712
0.27298
0.0487349
0.137504
0.198856
0.0400677
0.0646573
0.0599237
0.143265
0.048976
0.162825
0.0990465
0.0417722
0.0433724
0.141494
0.0620214
0.0503134
0.139566
0.0465835
0.0668075
0.0403886
0.0563571
0.0291909
0.0576916
0.0604935
0.0557854
0.0408188
0.238303
0.235609
0.0395971
0.0131467
0.0320878
0.0370639
0.0323639
0.0368935
0.0666146
0.0517059
0.134898
0.0329554
0.0365644
0.0491743
0.037177
0.0513153
0.0263598
0.0353683
0.0395479
0.0662409
0.040757
0.0276207
0.03963
0.0459433
0.231792
0.179878
0.034382
0.0299963
0.244569
0.0368046
0.220879
0.440435
0.066839
0.0577334
0.0501267
0.0562085
0.10949
0.108003
0.0563176
0.0615499
0.214679
0.256481
0.0654236
0.0403437
0.0559614
0.0317425
0.0556763
0.0252931
0.0291434
0.0356084
0.066452
0.0296466
0.0684401
0.13131
0.0336164
0.0336344
0.0414032
0.0299583
0.05685
0.0253668
0.0336086
0.265684
0.103679
0.0546072
0.0590132
0.0563895
0.479718
0.02435
0.451532
0.135157
0.227065
0.0288607
0.109061
0.0311337
0.059883
0.0555188
0.0286241
0.503944
0.270869
0.0596689
0.230429
0.237814
0.472804
0.0286526
0.200015
0.0266905
0.526589
0.0668648
0.0284393
0.0212466
0.0951991
0.117125
0.065983
0.0617765
0.183332
0.0569366
0.404507
0.541489
0.0217087
0.0244111
0.0255692
0.0570299
0.0805572
0.550603
0.274049
0.0652738
0.0221407
0.0196447
0.0555416
0.0274102
0.0254637
0.0549831
0.0531632
0.0428344
0.0579845
0.107435
0.0352762
0.0375876
0.0278388
0.0161807
0.0187838
0.0208224
0.0119734
0.0166279
0.0115145
0.0232943
0.0332423
0.495987
0.247918
0.318446
0.243703
0.486154
0.460454
0.252955
0.504657
0.44984
0.225241
0.0476311
0.0629001
0.12587
0.0463572
0.0409971
0.0841679
0.0553665
0.0294955
0.561784
0.559836
0.273851
0.540721
0.518527
0.262283
0.103413
0.0157889
0.0415816
0.0210378
0.0255395
0.0232729
0.103506
0.197203
0.032512
0.020595
0.02848
0.190183
0.0366647
0.058913
0.0186654
0.0373846
0.101964
0.0318826
0.0439724
0.0312118
0.0861061
0.18578
0.0932223
0.0603579
0.00931796
0.033652
0.0565847
0.110485
0.0125787
0.0476133
0.03391
0.17294
0.196416
0.0834992
0.0525989
0.107817
0.0496037
0.0673152
0.059111
0.0300669
0.0822634
0.028517
0.0336733
0.0175149
0.0252624
0.0809478
0.0477817
0.0603679
0.0359494
0.0557171
0.0686378
0.0307701
0.0329372
0.0986049
0.0189487
0.0441332
0.0122862
0.00903633
0.0297327
0.0387322
0.0442333
0.0290688
0.0451954
0.0359957
0.0299465
0.0316122
0.0310102
0.0311691
0.0288938
0.049224
0.00839521
0.0463335
0.0505318
0.02473
0.0516204
0.00812805
0.0113602
0.0252449
0.0496397
0.0084938
0.0131296
0.013815
0.0172457
0.0107041
0.0100814
0.0087303
0.0240854
0.0547129
0.00999829
0.0509661
0.150955
0.010019
0.0568571
0.00880035
0.0380714
0.0485915
0.0157034
0.0514331
0.0580082
0.0090342
0.0078712
0.0383836
0.0530837
0.0551241
0.00934026
0.055018
0.0535864
0.0277345
0.0549351
0.0561937
0.0165829
0.0572158
0.0172993
0.0121998
0.0115872
0.055654
0.055511
0.0313306
0.0591429
0.0574912
)
;

boundaryField
{
    patch0
    {
        type            epsilonWallFunction;
        value           nonuniform List<scalar> 
4010
(
0.0283685
0.0283685
0.0330059
0.0330059
0.0518916
0.0518916
0.052169
0.052169
0.0364795
0.0364795
0.0547645
0.0547645
0.0550436
0.0550436
0.0570888
0.0570888
0.0572171
0.0572171
0.0484582
0.0484582
0.0580449
0.0580449
0.0580797
0.0580797
0.0242506
0.0242506
0.0585747
0.0585747
0.0561443
0.0561443
0.0558727
0.0558727
0.0288067
0.0288067
0.0585614
0.0585614
0.0243803
0.0243803
0.0586343
0.0586343
0.0158054
0.0158054
0.0604884
0.0604884
0.0394897
0.0394897
0.0584171
0.0584171
0.0623558
0.0623558
0.0616117
0.0616117
0.0609225
0.0609225
0.0407157
0.0407157
0.0401234
0.0401234
0.0328429
0.0328429
0.0392792
0.0392792
0.0631019
0.0631019
0.024011
0.024011
0.0315464
0.0315464
0.0431257
0.0431257
0.0424121
0.0424121
0.062557
0.062557
0.0432969
0.0432969
0.0282607
0.0282607
0.0364414
0.0364414
0.0626294
0.0626294
0.018134
0.018134
0.0626024
0.0626024
0.0351253
0.0351253
0.038747
0.038747
0.0363723
0.0363723
0.0259714
0.0259714
0.0432705
0.0432705
0.00919645
0.00919645
0.0111414
0.0111414
0.0194548
0.0194548
0.0216622
0.0216622
0.0590462
0.0590462
0.0150889
0.0150889
0.0371946
0.0371946
0.0466744
0.0466744
0.0237221
0.0237221
0.0406577
0.0406577
0.0395751
0.0395751
0.0550542
0.0550542
0.0350323
0.0350323
0.0556308
0.0556308
0.0284364
0.0284364
0.0253838
0.0253838
0.0160745
0.0160745
0.0447151
0.0447151
0.0549774
0.0549774
0.0456378
0.0456378
0.0404163
0.0404163
0.0192538
0.0192538
0.016806
0.016806
0.055414
0.055414
0.0264015
0.0264015
0.0353608
0.0353608
0.0368978
0.0368978
0.0352356
0.0352356
0.0463104
0.0463104
0.0389032
0.0389032
0.0428874
0.0428874
0.0283067
0.0283067
0.0521571
0.0521571
0.0594138
0.0594138
0.0373436
0.0373436
0.0162157
0.0162157
0.0250976
0.0250976
0.0478753
0.0478753
0.0418295
0.0418295
0.0564531
0.0564531
0.00932959
0.00932959
0.0162838
0.0162838
0.0550444
0.0550444
0.0573297
0.0573297
0.0377414
0.0377414
0.0460655
0.0460655
0.0197389
0.0197389
0.0183991
0.0183991
0.0481499
0.0481499
0.0541797
0.0541797
0.0551474
0.0551474
0.0300096
0.0300096
0.0528642
0.0528642
0.0189128
0.0189128
0.0556185
0.0556185
0.056201
0.056201
0.0467469
0.0467469
0.0439589
0.0439589
0.0533698
0.0533698
0.0461243
0.0461243
0.0553198
0.0553198
0.0467391
0.0467391
0.0499013
0.0499013
0.0480287
0.0480287
0.0425764
0.0425764
0.0365061
0.0365061
0.0430649
0.0430649
0.0135357
0.0135357
0.05311
0.05311
0.0557824
0.0557824
0.056974
0.056974
0.0457191
0.0457191
0.0206918
0.0206918
0.0277319
0.0277319
0.0126415
0.0126415
0.0128597
0.0128597
0.0550109
0.0550109
0.0529929
0.0529929
0.0384102
0.0384102
0.0394757
0.0394757
0.0483674
0.0483674
0.0524447
0.0524447
0.0501268
0.0501268
0.0536926
0.0536926
0.217812
0.217812
0.0378058
0.0378058
0.0213371
0.0213371
0.0527964
0.0527964
0.0488737
0.0488737
0.0495547
0.0495547
0.0583403
0.0583403
0.0437266
0.0437266
0.0447788
0.0447788
0.0551899
0.0551899
0.130141
0.130141
0.130141
0.177281
0.177281
0.177281
0.0557063
0.0557063
0.0261158
0.0261158
0.0468102
0.0468102
0.0268033
0.0268033
0.0556732
0.0556732
0.0576132
0.0576132
0.0350846
0.0350846
0.0549452
0.0549452
0.0549452
0.0376883
0.0376883
0.0562946
0.0562946
0.0559026
0.0559026
0.0533979
0.0533979
0.027877
0.027877
0.0494825
0.0494825
0.0524712
0.0524712
0.256044
0.256044
0.0356366
0.0356366
0.0353039
0.0353039
0.0564684
0.0564684
0.0289983
0.0289983
0.0310102
0.0310102
0.0535525
0.0535525
0.0567871
0.0567871
0.0355651
0.0355651
0.0457617
0.0457617
0.0532215
0.0532215
0.0273987
0.0273987
0.0577186
0.0577186
0.0437571
0.0437571
0.0553673
0.0553673
0.0466579
0.0466579
0.0475455
0.0475455
0.0332496
0.0332496
0.0555394
0.0555394
0.0433127
0.0433127
0.0581082
0.0581082
0.0570347
0.0570347
0.0561478
0.0561478
0.0404409
0.0404409
0.0570884
0.0570884
0.00881033
0.00881033
0.0311063
0.0311063
0.0405446
0.0405446
0.0593338
0.0593338
0.0483043
0.0483043
0.0377988
0.0377988
0.0465289
0.0465289
0.0578093
0.0578093
0.0528522
0.0528522
0.0581618
0.0581618
0.0587365
0.0587365
0.0581821
0.0581821
0.0581821
0.0604361
0.0604361
0.0487265
0.0487265
0.0531238
0.0531238
0.0488447
0.0488447
0.0842677
0.0842677
0.0345248
0.0345248
0.056051
0.056051
0.0584958
0.0584958
0.0335558
0.0335558
0.0573778
0.0573778
0.0586522
0.0586522
0.0385017
0.0385017
0.0316355
0.0316355
0.165842
0.165842
0.165842
0.0309853
0.0309853
0.0536474
0.0536474
0.0580422
0.0580422
0.0589935
0.0589935
0.0596434
0.0596434
0.0421087
0.0421087
0.0558033
0.0558033
0.0475619
0.0475619
0.0586197
0.0586197
0.03871
0.03871
0.0529323
0.0529323
0.0375246
0.0375246
0.0569738
0.0569738
0.0576387
0.0576387
0.05854
0.05854
0.0607158
0.0607158
0.0548477
0.0548477
0.0473067
0.0473067
0.0595139
0.0595139
0.0500275
0.0500275
0.184526
0.184526
0.0550779
0.0550779
0.0536473
0.0536473
0.0876875
0.0876875
0.0604139
0.0604139
0.260222
0.260222
0.260222
0.0576988
0.0576988
0.0586111
0.0586111
0.058037
0.058037
0.0618293
0.0618293
0.0618293
0.0561243
0.0561243
0.0572209
0.0572209
0.0577373
0.0577373
0.0417909
0.0417909
0.16218
0.16218
0.0280751
0.0280751
0.058739
0.058739
0.0483322
0.0483322
0.040552
0.040552
0.0452325
0.0452325
0.0346242
0.0346242
0.0387984
0.0387984
0.0597049
0.0597049
0.0561414
0.0561414
0.0484102
0.0484102
0.057203
0.057203
0.060179
0.060179
0.0576631
0.0576631
0.0534826
0.0534826
0.0585666
0.0585666
0.0568869
0.0568869
0.0586934
0.0586934
0.0550415
0.0550415
0.0424787
0.0424787
0.0634517
0.0634517
0.0352776
0.0352776
0.0167734
0.0167734
0.0418078
0.0418078
0.0373238
0.0373238
0.0670042
0.0670042
0.0502101
0.0502101
0.0350793
0.0350793
0.0289481
0.0289481
0.0602791
0.0602791
0.0551679
0.0551679
0.051866
0.051866
0.0587647
0.0587647
0.0605254
0.0605254
0.0564527
0.0564527
0.0533991
0.0533991
0.0695802
0.0695802
0.0926407
0.0926407
0.0926407
0.0551963
0.0551963
0.0592959
0.0592959
0.018973
0.018973
0.0375223
0.0375223
0.0551425
0.0551425
0.0473356
0.0473356
0.0584142
0.0584142
0.0577295
0.0577295
0.0590985
0.0590985
0.0299207
0.0299207
0.0595436
0.0595436
0.0572656
0.0572656
0.0112852
0.0112852
0.0314282
0.0314282
0.0568504
0.0568504
0.0400095
0.0400095
0.0396706
0.0396706
0.0570722
0.0570722
0.0857152
0.0857152
0.0857152
0.0579588
0.0579588
0.0568925
0.0568925
0.0559393
0.0559393
0.0587907
0.0587907
0.0616169
0.0616169
0.0187445
0.0187445
0.0564839
0.0564839
0.0583179
0.0583179
0.0399243
0.0399243
0.0314399
0.0314399
0.0574855
0.0574855
0.0592821
0.0592821
0.0609971
0.0609971
0.0508354
0.0508354
0.022385
0.022385
0.0572343
0.0572343
0.0583414
0.0583414
0.059255
0.059255
0.0590189
0.0590189
0.0326703
0.0326703
0.0512836
0.0512836
0.0583048
0.0583048
0.0334831
0.0334831
0.0616301
0.0616301
0.0491356
0.0491356
0.0597045
0.0597045
0.060831
0.060831
0.0498235
0.0498235
0.0563406
0.0563406
0.0540385
0.0540385
0.0551502
0.0551502
0.0612972
0.0612972
0.0587298
0.0587298
0.0365019
0.0365019
0.0589673
0.0589673
0.05524
0.05524
0.0589881
0.0589881
0.0585878
0.0585878
0.0589064
0.0589064
0.047609
0.047609
0.0352837
0.0352837
0.0631378
0.0631378
0.0433937
0.0433937
0.0565715
0.0565715
0.0553806
0.0553806
0.164108
0.164108
0.0550448
0.0550448
0.0583158
0.0583158
0.0620505
0.0620505
0.0625408
0.0625408
0.157025
0.157025
0.110907
0.110907
0.0566865
0.0566865
0.0278906
0.0278906
0.0441163
0.0441163
0.00926734
0.00926734
0.0578899
0.0578899
0.0584607
0.0584607
0.0180669
0.0180669
0.0576462
0.0576462
0.0567882
0.0567882
0.0564165
0.0564165
0.0553298
0.0553298
0.0628397
0.0628397
0.0587967
0.0587967
0.0634906
0.0634906
0.0516658
0.0516658
0.0582384
0.0582384
0.0587987
0.0587987
0.0548497
0.0548497
0.0593036
0.0593036
0.0612587
0.0612587
0.056206
0.056206
0.0567442
0.0567442
0.0315237
0.0315237
0.0566343
0.0566343
0.0563716
0.0563716
0.0632366
0.0632366
0.055086
0.055086
0.0552883
0.0552883
0.0420291
0.0420291
0.0601439
0.0601439
0.0599516
0.0599516
0.0539177
0.0539177
0.0544719
0.0544719
0.0350997
0.0350997
0.0553579
0.0553579
0.05747
0.05747
0.0586995
0.0586995
0.129731
0.129731
0.0624638
0.0624638
0.0609751
0.0609751
0.0552325
0.0552325
0.0583891
0.0583891
0.197372
0.197372
0.197372
0.0600185
0.0600185
0.0636524
0.0636524
0.056249
0.056249
0.0556949
0.0556949
0.0294211
0.0294211
0.0380234
0.0380234
0.0426984
0.0426984
0.0392552
0.0392552
0.07745
0.07745
0.07745
0.0554991
0.0554991
0.0530977
0.0530977
0.0552347
0.0552347
0.0598134
0.0598134
0.0603819
0.0603819
0.0566986
0.0566986
0.0627389
0.0627389
0.0577328
0.0577328
0.0584926
0.0584926
0.0574806
0.0574806
0.0558744
0.0558744
0.0502028
0.0502028
0.0563671
0.0563671
0.0521469
0.0521469
0.0504215
0.0504215
0.0563371
0.0563371
0.0529061
0.0529061
0.052335
0.052335
0.0316657
0.0316657
0.0618021
0.0618021
0.0549105
0.0549105
0.0510043
0.0510043
0.0308068
0.0308068
0.0641075
0.0641075
0.0550356
0.0550356
0.0555641
0.0555641
0.0490953
0.0490953
0.0551293
0.0551293
0.0615
0.0615
0.0579624
0.0579624
0.0551761
0.0551761
0.0542157
0.0542157
0.0136908
0.0136908
0.0582072
0.0582072
0.0620274
0.0620274
0.0546957
0.0546957
0.0569702
0.0569702
0.060182
0.060182
0.0253685
0.0253685
0.0550693
0.0550693
0.181837
0.181837
0.181837
0.0557897
0.0557897
0.0360828
0.0360828
0.061297
0.061297
0.0555183
0.0555183
0.0562516
0.0562516
0.0644844
0.0644844
0.0598056
0.0598056
0.0566332
0.0566332
0.0575505
0.0575505
0.0610304
0.0610304
0.0527244
0.0527244
0.0564891
0.0564891
0.0617246
0.0617246
0.0552399
0.0552399
0.0460849
0.0460849
0.0634207
0.0634207
0.0255013
0.0255013
0.0598286
0.0598286
0.0457389
0.0457389
0.0554889
0.0554889
0.0552513
0.0552513
0.0570014
0.0570014
0.0580224
0.0580224
0.0405074
0.0405074
0.0592545
0.0592545
0.063606
0.063606
0.0320502
0.0320502
0.052211
0.052211
0.0536402
0.0536402
0.0443677
0.0443677
0.0292281
0.0292281
0.0571284
0.0571284
0.0549572
0.0549572
0.0556872
0.0556872
0.0553131
0.0553131
0.0574866
0.0574866
0.0557437
0.0557437
0.0550768
0.0550768
0.0640565
0.0640565
0.0594133
0.0594133
0.0551215
0.0551215
0.0559583
0.0559583
0.0553745
0.0553745
0.0529159
0.0529159
0.0159809
0.0159809
0.0552011
0.0552011
0.0638556
0.0638556
0.0528316
0.0528316
0.0550674
0.0550674
0.0506552
0.0506552
0.0550418
0.0550418
0.05573
0.05573
0.0552946
0.0552946
0.033055
0.033055
0.0544881
0.0544881
0.0564412
0.0564412
0.0548395
0.0548395
0.0609592
0.0609592
0.0316899
0.0316899
0.0556
0.0556
0.0561094
0.0561094
0.0569538
0.0569538
0.0650883
0.0650883
0.0522795
0.0522795
0.0401679
0.0401679
0.0498415
0.0498415
0.0557029
0.0557029
0.0598796
0.0598796