/*--------------------------------*- C++ -*----------------------------------*\
  =========                 |
  \\      /  F ield         | OpenFOAM: The Open Source CFD Toolbox
   \\    /   O peration     | Website:  https://openfoam.org
    \\  /    A nd           | Version:  8
     \\/     M anipulation  |
\*---------------------------------------------------------------------------*/
FoamFile
{
    version     2.0;
    format      ascii;
    class       volScalarField;
    location    "0.65";
    object      k;
}
// * * * * * * * * * * * * * * * * * * * * * * * * * * * * * * * * * * * * * //

dimensions      [0 2 -2 0 0 0 0];

internalField   nonuniform List<scalar> 
1924
(
0.023211
0.0256849
0.0347342
0.0348622
0.0274534
0.0360108
0.0361346
0.0370158
0.03707
0.0331786
0.0374219
0.0374362
0.0208964
0.0376476
0.0365935
0.0364773
0.0234433
0.037641
0.0209822
0.0376709
0.0157134
0.0384563
0.028934
0.037575
0.03924
0.0389241
0.0386309
0.0295447
0.0292689
0.0255727
0.0288326
0.0395554
0.0207692
0.0249043
0.030694
0.0303393
0.0393276
0.030783
0.0231383
0.0274213
0.0393586
0.017216
0.039345
0.0267547
0.0285746
0.0274064
0.0218955
0.0307539
0.0109509
0.0124458
0.0180402
0.0193871
0.0378361
0.0152615
0.0278151
0.0323531
0.0206075
0.0295107
0.0289914
0.0361285
0.0267101
0.036371
0.0232316
0.021558
0.0159037
0.0314386
0.0360899
0.0318594
0.029409
0.0179105
0.0163824
0.0362786
0.0221243
0.0268672
0.0276504
0.026815
0.0321818
0.0286452
0.0305713
0.0231661
0.0348381
0.0379851
0.0278695
0.0159884
0.0213825
0.0328868
0.0300804
0.0367264
0.0110553
0.0160406
0.0361157
0.0370943
0.0280883
0.032097
0.0182495
0.0174049
0.0330355
0.0357324
0.0361629
0.0240982
0.0351681
0.0177259
0.0363609
0.0366095
0.0324147
0.0310839
0.0353944
0.032124
0.0362487
0.0324084
0.033834
0.0329979
0.0304347
0.0274485
0.030656
0.0141734
0.0352787
0.03644
0.0369481
0.0319066
0.0187961
0.0120345
0.0135399
0.0137017
0.0361039
0.0352358
0.0284036
0.0289302
0.0331544
0.0174626
0.0339382
0.0355371
0.0215004
0.0280988
0.0192037
0.035146
0.0333719
0.0336862
0.0375416
0.0309777
0.031469
0.0361797
0.0130439
0.0159377
0.0364217
0.0219601
0.0324386
0.0223562
0.0364027
0.0372259
0.0267323
0.011959
0.0280496
0.0366774
0.036508
0.0354137
0.0120768
0.0336469
0.0349909
0.0239458
0.0270072
0.0268582
0.0367532
0.0123977
0.0246096
0.0354818
0.0368914
0.0118101
0.0319283
0.0353313
0.0226834
0.0372856
0.0309893
0.0362545
0.0323469
0.0327644
0.0257831
0.0137012
0.0307723
0.0374511
0.0369968
0.0365992
0.0293939
0.0370204
0.0106424
0.0247016
0.0294496
0.0379772
0.0331036
0.0280936
0.032304
0.0373249
0.0351606
0.0374749
0.037723
0.012424
0.0384377
0.0333016
0.0352905
0.0333542
0.0173579
0.0264731
0.036573
0.0376152
0.0259807
0.0371425
0.0376798
0.0284629
0.0249709
0.0149022
0.0129578
0.0355171
0.0374112
0.037832
0.0381074
0.030203
0.0364581
0.0327747
0.0376664
0.0285563
0.0352081
0.0279599
0.036971
0.0372368
0.0376345
0.0385554
0.0360382
0.0326437
0.0380447
0.0338911
0.0240961
0.0361352
0.0355194
0.0170237
0.0384212
0.0200795
0.0372629
0.0376622
0.0374263
0.0129378
0.0365868
0.0370753
0.0372807
0.0300577
0.0221851
0.0230731
0.0377191
0.0331166
0.0294501
0.0316829
0.0265349
0.0135739
0.0381246
0.036612
0.0331528
0.0370492
0.0383172
0.0372626
0.0354489
0.0376447
0.0369342
0.0377035
0.0361207
0.0303789
0.0397033
0.0268381
0.0163496
0.0300619
0.027876
0.0149351
0.0339706
0.0267283
0.0235152
0.0383751
0.0361797
0.0347049
0.0377304
0.0384665
0.0367455
0.0354096
0.0167633
0.0135137
0.0361798
0.0379469
0.0177424
0.0279566
0.0361651
0.0152436
0.0375784
0.0372919
0.03787
0.0240325
0.0380472
0.0370774
0.012554
0.0248371
0.0368984
0.0291994
0.0290285
0.0369947
0.0156312
0.0373928
0.0369171
0.0365136
0.03774
0.0389355
0.0176019
0.0367363
0.0375402
0.0291442
0.0248863
0.0371739
0.0379373
0.0386675
0.0342528
0.0198107
0.0370821
0.0375469
0.0379323
0.0378437
0.0254906
0.0344515
0.037538
0.0259102
0.0389345
0.0334788
0.0381337
0.0386061
0.0338005
0.0366813
0.0356895
0.0361686
0.0387952
0.0377125
0.0274611
0.0377937
0.036213
0.0378161
0.0376415
0.0377859
0.0327817
0.026832
0.0395682
0.0308209
0.0367795
0.0362653
0.0212398
0.0361195
0.0375325
0.0391157
0.0393268
0.0208423
0.0216792
0.0368277
0.0229759
0.0311591
0.0110047
0.0373491
0.0375993
0.0172105
0.0372294
0.0368733
0.0367119
0.0362495
0.0394519
0.0377387
0.0397165
0.0346165
0.0374894
0.0377337
0.0360251
0.0379637
0.0387856
0.036621
0.0368442
0.00936409
0.0368077
0.036694
0.0396134
0.036137
0.0362239
0.0301688
0.0383181
0.0382314
0.0356342
0.0358534
0.0267525
0.0362602
0.0371563
0.0376951
0.0221014
0.0392882
0.0386659
0.0362034
0.0375598
0.0150722
0.0382578
0.0397822
0.0366371
0.0364023
0.0237772
0.0282206
0.0304856
0.0288284
0.00967168
0.036325
0.0352498
0.0362032
0.0381713
0.0384155
0.036823
0.0394045
0.0372809
0.0376079
0.0371647
0.0364813
0.03396
0.0366909
0.0348243
0.0340705
0.0366779
0.0351634
0.0349104
0.0249978
0.0390231
0.0360563
0.0343284
0.0245124
0.0399713
0.0361191
0.0363513
0.0334583
0.0361664
0.0388822
0.0373756
0.0361755
0.0357483
0.0142792
0.0374864
0.0391116
0.0359718
0.0369421
0.0383284
0.0215289
0.0361281
0.0142948
0.0364341
0.0272528
0.0388004
0.0363291
0.0366435
0.0401296
0.0381627
0.0368014
0.0371976
0.0386822
0.035083
0.0367463
0.0389788
0.0362003
0.0320784
0.0396758
0.0216059
0.03817
0.0319121
0.0363142
0.0362079
0.0369584
0.0374085
0.0294249
0.0379454
0.0397678
0.0251796
0.0348522
0.0354844
0.0312767
0.0236817
0.0370185
0.0360764
0.0363958
0.0362317
0.0371717
0.0364305
0.0361289
0.0399386
0.0380081
0.0361549
0.0365113
0.0362728
0.0351811
0.0158271
0.036198
0.0398738
0.0351602
0.0361257
0.0341612
0.0361116
0.0364217
0.0362268
0.0256925
0.0358729
0.0367261
0.0360301
0.0386495
0.024998
0.0363541
0.0365795
0.0369556
0.04038
0.0348899
0.0292721
0.0337938
0.0364078
0.0381919
0.0363107
0.0362219
0.0389099
0.0386901
0.0372206
0.0363051
0.039374
0.0365807
0.0326598
0.0346109
0.0378314
0.0381865
0.0252077
0.0278948
0.0369775
0.0366382
0.0387009
0.0369309
0.0405308
0.0334542
0.0319355
0.0360143
0.0369709
0.0362456
0.0248212
0.0374604
0.0401045
0.0249958
0.0245484
0.0282447
0.0340276
0.0362786
0.0243784
0.0210904
0.0359667
0.0366389
0.0362039
0.0364901
0.0364964
0.0401439
0.036219
0.034449
0.0299895
0.01953
0.0242345
0.0243295
0.0376716
0.0394401
0.0290103
0.036469
0.0364976
0.0344304
0.0320542
0.0355271
0.024738
0.0404221
0.0337701
0.0364325
0.0362773
0.0363897
0.0257508
0.0360822
0.0320952
0.0273714
0.0348971
0.0358829
0.0388962
0.0359807
0.0371338
0.0362938
0.0168549
0.0274395
0.0359874
0.0373301
0.0328844
0.0260665
0.0365882
0.0402178
0.0148186
0.0195355
0.0237211
0.0345701
0.0358587
0.0333288
0.0358065
0.0387743
0.0170906
0.0360691
0.0364622
0.0206606
0.0407378
0.0367448
0.0378558
0.0302365
0.0344111
0.037321
0.0366823
0.0366794
0.0331906
0.0351983
0.0393799
0.0357739
0.0376711
0.0330317
0.0173847
0.0218469
0.0337623
0.0324627
0.0364624
0.0375286
0.0367618
0.0245654
0.0307149
0.0358007
0.0371809
0.0345992
0.0362106
0.0362719
0.0333921
0.0384947
0.0408465
0.0174419
0.0362332
0.0227051
0.0364645
0.0335415
0.0364897
0.0364257
0.0407193
0.0362194
0.0359979
0.0364843
0.0380081
0.036301
0.0364813
0.036705
0.0397263
0.0363187
0.0330643
0.0372338
0.0316305
0.0361302
0.0391413
0.0292851
0.0361913
0.0353779
0.0356898
0.0280586
0.0248866
0.0327936
0.0359028
0.0225181
0.0364722
0.036052
0.0404043
0.0409847
0.0398546
0.0309139
0.0173493
0.0357752
0.0364814
0.0324997
0.0368843
0.0364091
0.0245074
0.0332209
0.0347012
0.0349876
0.0354632
0.0355053
0.0367961
0.0365672
0.0355435
0.0235588
0.0335862
0.0300269
0.0248237
0.036251
0.0366544
0.0362342
0.0397211
0.0358757
0.0340541
0.0265936
0.040387
0.0385937
0.0312311
0.038293
0.0364352
0.0278666
0.020689
0.0364568
0.0364114
0.0361965
0.0333396
0.0409833
0.0404133
0.0272887
0.036286
0.0242829
0.0360439
0.0367284
0.0361245
0.0390552
0.0359219
0.014832
0.0255196
0.035485
0.0301304
0.0318703
0.036278
0.00991578
0.00793307
0.0190134
0.0330394
0.0325161
0.0358894
0.0360672
0.0227841
0.0393517
0.0351487
0.036071
0.0351677
0.0365131
0.0350375
0.038602
0.0237532
0.0355653
0.0306482
0.0165921
0.0371361
0.0173911
0.0411867
0.0326886
0.0410053
0.0322924
0.0372311
0.0355841
0.0367821
0.0195377
0.0207923
0.036944
0.0223385
0.0205565
0.0239393
0.0351981
0.0221922
0.0351929
0.0360961
0.0312067
0.0380252
0.035168
0.0361183
0.0407182
0.0302469
0.0363626
0.0358168
0.036316
0.0248696
0.0360417
0.0301165
0.0335682
0.0413002
0.0360143
0.0319336
0.0361774
0.037846
0.0275095
0.0363909
0.0300298
0.037555
0.0217592
0.0363995
0.0364265
0.0349729
0.0244458
0.0360763
0.0392595
0.0347897
0.0357798
0.0398665
0.0307905
0.0332753
0.0162029
0.0363849
0.0398775
0.0207084
0.0338724
0.0361045
0.0224955
0.0282701
0.0363423
0.0190331
0.0355622
0.0355148
0.0410741
0.0219904
0.0322284
0.0251497
0.0165496
0.0404794
0.0340494
0.0344455
0.0275143
0.0365657
0.0373089
0.0380733
0.0365768
0.0357154
0.0295725
0.0346588
0.0320156
0.0406007
0.0346423
0.0351538
0.0350064
0.0360808
0.028728
0.041008
0.0361955
0.0386654
0.0361159
0.0263732
0.0340715
0.0309517
0.00883742
0.0371592
0.0170526
0.0362772
0.0358156
0.0117233
0.0390132
0.0362549
0.039823
0.0347784
0.03976
0.0365577
0.0346653
0.0329008
0.027227
0.0358682
0.0358569
0.038422
0.0413114
0.0240998
0.0225229
0.0341324
0.0357596
0.035548
0.0213865
0.0372295
0.0353444
0.0266381
0.0357517
0.0338691
0.0366756
0.0306468
0.0403658
0.0364352
0.0362433
0.0410991
0.0209859
0.0278668
0.0369012
0.00860164
0.0361536
0.0212936
0.0408747
0.0344126
0.020846
0.034811
0.0371237
0.0349764
0.0373406
0.0341355
0.0341282
0.0405974
0.0288373
0.013757
0.0355726
0.0335926
0.0333288
0.0320439
0.0351528
0.0373546
0.0362078
0.0358461
0.0208756
0.0411858
0.021124
0.0359868
0.0384384
0.0346645
0.0299815
0.0361041
0.0347763
0.0360662
0.0217243
0.0318007
0.0180473
0.0233536
0.0345752
0.031912
0.035814
0.0410369
0.0232638
0.021348
0.0360518
0.0397854
0.0250587
0.0306148
0.0363949
0.0281693
0.0363611
0.0364954
0.0359206
0.0407512
0.0347993
0.0358807
0.0386914
0.0350283
0.0302158
0.0332665
0.0395082
0.0357867
0.0340747
0.0240226
0.0175229
0.0303633
0.0152169
0.0180075
0.0351935
0.0402103
0.0346174
0.0347564
0.0354933
0.0372644
0.0367817
0.0180774
0.0400634
0.0334387
0.0120947
0.0366998
0.00784018
0.0355231
0.0336831
0.0253276
0.028702
0.0404804
0.0372674
0.0267398
0.0343088
0.0355474
0.0384537
0.0359331
0.028906
0.024607
0.0407373
0.0218913
0.0358453
0.0360058
0.0212735
0.0340707
0.0356766
0.0334155
0.030247
0.0351745
0.0355749
0.0358611
0.0405228
0.0356829
0.0334031
0.0392077
0.0201138
0.0186338
0.0390632
0.0380173
0.033819
0.0281469
0.040146
0.0396736
0.0226194
0.0380973
0.0328251
0.0327947
0.0363834
0.035684
0.0330842
0.0372147
0.0332186
0.0400219
0.031534
0.0356951
0.0372616
0.03195
0.0215683
0.0394855
0.0343391
0.0341296
0.0345809
0.0316997
0.0303204
0.0340838
0.0352182
0.0401853
0.0367846
0.0335091
0.0351915
0.0332963
0.00886577
0.0233033
0.0248805
0.0338372
0.0398314
0.0332606
0.0289043
0.0240166
0.0224876
0.0361829
0.0300717
0.0327529
0.0232536
0.0251772
0.0394386
0.0373111
0.0247795
0.0377707
0.0351974
0.0354382
0.0369044
0.0327121
0.0336688
0.0357011
0.0283979
0.0355505
0.0356199
0.0332942
0.0393909
0.0344865
0.0355236
0.0385143
0.0342037
0.0376256
0.0355795
0.0346085
0.0326038
0.037615
0.0348132
0.0348105
0.0382188
0.0187672
0.03588
0.0237685
0.0356338
0.0355546
0.0279885
0.0291373
0.034545
0.0316264
0.0388665
0.0382994
0.0344587
0.0328657
0.0196373
0.0322076
0.0383314
0.0361761
0.0139028
0.0332007
0.0381489
0.0136456
0.0348241
0.036613
0.0248288
0.0334323
0.0341074
0.0327816
0.0375368
0.0317284
0.0134879
0.013958
0.0372453
0.0325276
0.0354645
0.0342141
0.0322344
0.0343648
0.0373349
0.0374468
0.0357017
0.0134234
0.0354671
0.0172867
0.033871
0.0346112
0.0318274
0.0354964
0.0351337
0.0317478
0.0162217
0.0161565
0.0374205
0.0358844
0.0377868
0.0319101
0.0373105
0.0353739
0.034252
0.0347043
0.0326962
0.0316399
0.0301018
0.0311058
0.0322015
0.0371301
0.0129673
0.0238933
0.0316441
0.0316983
0.0348198
0.036469
0.0366275
0.0353274
0.0298558
0.0280748
0.02721
0.0358457
0.0321277
0.0165548
0.0251474
0.0326302
0.0377336
0.0141737
0.0359249
0.0364877
0.014072
0.00705804
0.0314945
0.0277074
0.0344388
0.0311655
0.035129
0.0331521
0.0354416
0.0314864
0.0257768
0.0324401
0.033478
0.0170118
0.014671
0.0366259
0.0100173
0.0313815
0.0316112
0.0247835
0.0371468
0.0333347
0.0356008
0.0338034
0.0333591
0.0370561
0.0311996
0.0313679
0.017919
0.0287836
0.0310502
0.0309385
0.0325604
0.0331454
0.0346732
0.031552
0.0358522
0.019693
0.0374518
0.0344312
0.0352386
0.0150863
0.0351561
0.0348539
0.0163158
0.0131222
0.0302361
0.0218901
0.0351
0.0344574
0.0337034
0.0307295
0.0348211
0.0304839
0.0350058
0.0309316
0.0340873
0.0352003
0.023675
0.0237784
0.0297405
0.0339085
0.0343187
0.0346623
0.0325873
0.0311829
0.0241933
0.0307174
0.0375757
0.0299936
0.00561508
0.00548451
0.0328258
0.0356078
0.0341879
0.0259991
0.0345305
0.0349586
0.0328224
0.0171586
0.015384
0.0296959
0.036696
0.0322808
0.0315132
0.0295767
0.029094
0.0300461
0.0342383
0.0302015
0.0342899
0.0342397
0.0297526
0.0300847
0.0290612
0.0270251
0.033454
0.034768
0.0304031
0.034339
0.0132058
0.0306998
0.0341464
0.0291529
0.0340611
0.0295009
0.0129348
0.0278064
0.0206983
0.0167563
0.0294541
0.0296066
0.0339631
0.0168758
0.0216865
0.0371883
0.033876
0.0323771
0.0340916
0.0334689
0.031766
0.0346502
0.027459
0.0327409
0.0324466
0.0245555
0.0348543
0.0329409
0.0348073
0.0333988
0.0336738
0.0174338
0.0291947
0.0271401
0.0209378
0.0289215
0.0155137
0.0327525
0.031145
0.0291797
0.0350229
0.0270928
0.0345081
0.0287659
0.0219133
0.0292785
0.0336615
0.0275473
0.0304751
0.0303625
0.0356088
0.0127845
0.032371
0.0359329
0.0211946
0.0344346
0.026878
0.0238275
0.0285055
0.0123189
0.0326074
0.0279603
0.0322098
0.0122833
0.0167838
0.0365153
0.0295248
0.0298761
0.0326086
0.0266849
0.0283203
0.0177107
0.0268244
0.026761
0.026288
0.0351606
0.0294755
0.0130652
0.0264545
0.0298396
0.0322018
0.0285297
0.0342555
0.0322532
0.028883
0.030832
0.0344023
0.0276492
0.0344109
0.03349
0.0121031
0.013043
0.0252108
0.0324839
0.0238539
0.0165118
0.0284354
0.0261177
0.0168969
0.0278812
0.03634
0.0272154
0.0328902
0.0178312
0.0135153
0.0234175
0.0283189
0.015559
0.00511835
0.0064202
0.030027
0.0227635
0.023212
0.0285795
0.0345352
0.0314351
0.0335913
0.0264619
0.0307977
0.0278987
0.0105845
0.029327
0.0128203
0.0134853
0.0330626
0.027569
0.020339
0.013989
0.0326887
0.0325673
0.0346254
0.0323323
0.0324504
0.033129
0.0277845
0.0218857
0.0227569
0.0179922
0.0339035
0.0336018
0.0147427
0.0259172
0.0354213
0.0112427
0.0345893
0.0233639
0.0351242
0.0272584
0.00960209
0.0355783
0.0359808
0.0146397
0.0228552
0.0231161
0.0145181
0.0143652
0.0359029
0.0306812
0.0331339
0.0270083
0.030898
0.023445
0.0358812
0.0240678
0.0274699
0.0369858
0.0282955
0.0317484
0.0237477
0.0166952
0.0259149
0.0274652
0.0291659
0.033451
0.0320207
0.0183711
0.0198083
0.0360971
0.0330536
0.0312332
0.0283856
0.0365829
0.0254573
0.0324096
0.0232938
0.0269375
0.0146104
0.0270502
0.0285496
0.0309199
0.0177712
0.024368
0.022846
0.0243354
0.027818
0.0278925
0.0312343
0.029811
0.0334331
0.0310018
0.0258665
0.0335438
0.0148987
0.0228043
0.0292295
0.0309052
0.0362214
0.023302
0.031096
0.0342076
0.0305625
0.0291695
0.0365432
0.023035
0.0281499
0.0104577
0.0299403
0.0236515
0.0317862
0.0331387
0.0297408
0.0235432
0.0204542
0.0314676
0.017834
0.032824
0.0309202
0.0250875
0.0117212
0.0177804
0.0182601
0.0146995
0.0349889
0.0142172
0.0304721
0.0232855
0.0177282
0.0224294
0.0197728
0.0130934
0.0292766
0.0295315
0.0314586
0.0199188
0.0267466
0.0271673
0.0297019
0.0274469
0.0293926
0.0314735
0.0302871
0.0227987
0.0311268
0.0354604
0.0301362
0.0242861
0.0363812
0.0297897
0.0308436
0.024168
0.0320464
0.0167373
0.0321116
0.0244805
0.0108257
0.032752
0.0298296
0.0336419
0.0317996
0.0285511
0.0344244
0.0263057
0.0188206
0.0350348
0.0332754
0.0239526
0.0284895
0.0355186
0.0359062
0.0331643
0.0376326
0.0334244
0.0278757
0.0365435
0.031414
0.0236759
0.0255494
0.00938983
0.0111001
0.036157
0.0345607
0.0245406
0.0327037
0.0174516
0.0311033
0.0130147
0.0176213
0.0314403
0.0359465
0.017538
0.0271183
0.0326972
0.015731
0.0362996
0.0173546
0.0295092
0.0208692
0.0231971
0.0336311
0.0374054
0.0262326
0.0320756
0.031565
0.0311658
0.0232583
0.0320572
0.0307483
0.0306749
0.0366843
0.0339654
0.0367035
0.0105989
0.0178291
0.0180438
0.0197904
0.0326589
0.0234198
0.0311297
0.0371977
0.0347394
0.0323782
0.0227991
0.0340178
0.0323505
0.0320101
0.0298221
0.0311402
0.0235457
0.0350609
0.0252345
0.02867
0.0364238
0.0321537
0.0259319
0.00843301
0.0101352
0.0266217
0.0317582
0.0371788
0.0397746
0.0184719
0.037311
0.00916827
0.0222896
0.0151479
0.0376879
0.0303716
0.0282137
0.0335153
0.0289167
0.0409128
0.0172133
0.0346518
0.0137598
0.0143711
0.0235469
0.0284944
0.0284064
0.0158361
0.0338536
0.030655
0.0364381
0.027629
0.0332994
0.0244296
0.0144564
0.031058
0.0366522
0.0268967
0.0332058
0.0170402
0.0215372
0.0292174
0.0405187
0.0387873
0.0175262
0.0334571
0.0191956
0.0223383
0.0300325
0.03081
0.0173754
0.0159152
0.0341143
0.017213
0.0323113
0.0411672
0.0075303
0.0365232
0.0236398
0.0371628
0.01565
0.0364227
0.0295858
0.024562
0.0243702
0.0289857
0.0138984
0.0258951
0.0277419
0.0253502
0.0276616
0.0411737
0.0354807
0.0168224
0.0256575
0.027482
0.0335845
0.0278019
0.0343871
0.0221097
0.0109391
0.00742413
0.0407991
0.0295578
0.0228095
0.0290049
0.0320119
0.0387899
0.0207372
0.0263817
0.0240791
0.040188
0.0276104
0.0371288
0.0370588
0.0411267
0.0370934
0.0339196
0.0366103
0.0146424
0.0145103
0.036701
0.0158351
0.0370061
0.0414819
0.0403243
0.0293546
0.0362887
0.0250169
0.0366123
0.00874798
0.00605774
0.0269985
0.0408392
0.0239099
0.0169837
0.0165216
0.0259866
0.026006
0.0308448
0.0240761
0.0368692
0.0215507
0.0259911
0.042359
0.0141203
0.0361737
0.0153922
0.0367113
0.0396626
0.020971
0.0381626
0.027844
0.0246807
0.0234816
0.014603
0.0246942
0.0155487
0.0363553
0.0233376
0.0410078
0.0427582
0.0379221
0.0381498
0.0388904
0.0387938
0.0233591
0.0216117
0.0222834
0.0421784
0.0408821
0.0232509
0.0191487
0.0133386
0.0153093
0.0165755
0.0158648
0.0337123
0.015036
0.0357563
0.0428323
0.0194247
0.0209981
0.021663
0.0371535
0.0119312
0.043157
0.042898
0.0401573
0.019677
0.0181708
0.0366711
0.0226775
0.0216021
0.0362694
0.00903849
0.0124305
0.0372845
0.0144561
0.0109189
0.00717763
0.00932481
0.015967
0.0176343
0.00484041
0.00531297
0.00416814
0.00326096
0.00828858
0.00661104
0.040172
0.0401833
0.0309515
0.0396807
0.0395612
0.0381468
0.0406856
0.0406377
0.0375806
0.0376231
0.0133417
0.0101109
0.0160617
0.00824943
0.0120712
0.0122821
0.0147489
0.00610963
0.0436025
0.0433841
0.0427171
0.0423643
0.0412939
0.0415592
0.0140904
0.0157078
0.0299456
0.0190164
0.0216369
0.020339
0.0221168
0.0214026
0.025413
0.018749
0.0232713
0.0210034
0.0275281
0.0377786
0.0175567
0.0278886
0.0219547
0.00971244
0.0310879
0.0247352
0.0115435
0.0205879
0.0121622
0.0383966
0.0110451
0.0260036
0.0367697
0.0136262
0.0135056
0.0327848
0.0261381
0.0171083
0.0186401
0.0113009
0.00830352
0.0140227
0.00798541
0.00978739
0.00897529
0.0241177
0.0177784
0.023291
0.00583118
0.00379127
0.00483856
0.0175907
0.0328588
0.0384019
0.00637266
0.00675593
0.00774622
0.0245004
0.0256363
0.0167023
0.0177367
0.0311649
0.0132843
0.0108206
0.00943537
0.00692
0.0135425
0.00887767
0.0139966
0.0102368
0.00905672
0.00938829
0.00526131
0.00528036
0.0234862
0.0335164
0.0103041
0.0321946
0.00899488
0.00755685
0.0106993
0.0100851
0.0126089
0.00781714
0.0337014
0.0103852
0.0138862
0.0143899
0.00407824
0.0121195
0.0116406
0.0105739
0.00787739
0.035959
0.0115789
0.0342981
0.0166469
0.0115899
0.0368984
0.0106306
0.00871344
0.00781542
0.0156446
0.0345064
0.0373978
0.010819
0.00987407
0.00638134
0.035239
0.0361429
0.0110665
0.0360932
0.0354607
0.00864408
0.0360517
0.0366067
0.0162301
0.0370487
0.0166923
0.0132267
0.0127774
0.00667895
0.0363065
0.00862476
0.00807925
0.0371727
)
;

boundaryField
{
    patch0
    {
        type            kqRWallFunction;
        value           nonuniform List<scalar> 
4010
(
0.023211
0.023211
0.0256849
0.0256849
0.0347342
0.0347342
0.0348622
0.0348622
0.0274534
0.0274534
0.0360108
0.0360108
0.0361346
0.0361346
0.0370158
0.0370158
0.03707
0.03707
0.0331786
0.0331786
0.0374219
0.0374219
0.0374362
0.0374362
0.0208964
0.0208964
0.0376476
0.0376476
0.0365935
0.0365935
0.0364773
0.0364773
0.0234433
0.0234433
0.037641
0.037641
0.0209822
0.0209822
0.0376709
0.0376709
0.0157134
0.0157134
0.0384563
0.0384563
0.028934
0.028934
0.037575
0.037575
0.03924
0.03924
0.0389241
0.0389241
0.0386309
0.0386309
0.0295447
0.0295447
0.0292689
0.0292689
0.0255727
0.0255727
0.0288326
0.0288326
0.0395554
0.0395554
0.0207692
0.0207692
0.0249043
0.0249043
0.030694
0.030694
0.0303393
0.0303393
0.0393276
0.0393276
0.030783
0.030783
0.0231383
0.0231383
0.0274213
0.0274213
0.0393586
0.0393586
0.017216
0.017216
0.039345
0.039345
0.0267547
0.0267547
0.0285746
0.0285746
0.0274064
0.0274064
0.0218955
0.0218955
0.0307539
0.0307539
0.0109509
0.0109509
0.0124458
0.0124458
0.0180402
0.0180402
0.0193871
0.0193871
0.0378361
0.0378361
0.0152615
0.0152615
0.0278151
0.0278151
0.0323531
0.0323531
0.0206075
0.0206075
0.0295107
0.0295107
0.0289914
0.0289914
0.0361285
0.0361285
0.0267101
0.0267101
0.036371
0.036371
0.0232316
0.0232316
0.021558
0.021558
0.0159037
0.0159037
0.0314386
0.0314386
0.0360899
0.0360899
0.0318594
0.0318594
0.029409
0.029409
0.0179105
0.0179105
0.0163824
0.0163824
0.0362786
0.0362786
0.0221243
0.0221243
0.0268672
0.0268672
0.0276504
0.0276504
0.026815
0.026815
0.0321818
0.0321818
0.0286452
0.0286452
0.0305713
0.0305713
0.0231661
0.0231661
0.0348381
0.0348381
0.0379851
0.0379851
0.0278695
0.0278695
0.0159884
0.0159884
0.0213825
0.0213825
0.0328868
0.0328868
0.0300804
0.0300804
0.0367264
0.0367264
0.0110553
0.0110553
0.0160406
0.0160406
0.0361157
0.0361157
0.0370943
0.0370943
0.0280883
0.0280883
0.032097
0.032097
0.0182495
0.0182495
0.0174049
0.0174049
0.0330355
0.0330355
0.0357324
0.0357324
0.0361629
0.0361629
0.0240982
0.0240982
0.0351681
0.0351681
0.0177259
0.0177259
0.0363609
0.0363609
0.0366095
0.0366095
0.0324147
0.0324147
0.0310839
0.0310839
0.0353944
0.0353944
0.032124
0.032124
0.0362487
0.0362487
0.0324084
0.0324084
0.033834
0.033834
0.0329979
0.0329979
0.0304347
0.0304347
0.0274485
0.0274485
0.030656
0.030656
0.0141734
0.0141734
0.0352787
0.0352787
0.03644
0.03644
0.0369481
0.0369481
0.0319066
0.0319066
0.0187961
0.0187961
0.0120345
0.0120345
0.0135399
0.0135399
0.0137017
0.0137017
0.0361039
0.0361039
0.0352358
0.0352358
0.0284036
0.0284036
0.0289302
0.0289302
0.0331544
0.0331544
0.0174626
0.0174626
0.0339382
0.0339382
0.0355371
0.0355371
0.0215004
0.0215004
0.0280988
0.0280988
0.0192037
0.0192037
0.035146
0.035146
0.0333719
0.0333719
0.0336862
0.0336862
0.0375416
0.0375416
0.0309777
0.0309777
0.031469
0.031469
0.0361797
0.0361797
0.0130439
0.0130439
0.0130439
0.0159377
0.0159377
0.0159377
0.0364217
0.0364217
0.0219601
0.0219601
0.0324386
0.0324386
0.0223562
0.0223562
0.0364027
0.0364027
0.0372259
0.0372259
0.0267323
0.0267323
0.011959
0.011959
0.011959
0.0280496
0.0280496
0.0366774
0.0366774
0.036508
0.036508
0.0354137
0.0354137
0.0120768
0.0120768
0.0336469
0.0336469
0.0349909
0.0349909
0.0239458
0.0239458
0.0270072
0.0270072
0.0268582
0.0268582
0.0367532
0.0367532
0.0123977
0.0123977
0.0246096
0.0246096
0.0354818
0.0354818
0.0368914
0.0368914
0.0118101
0.0118101
0.0319283
0.0319283
0.0353313
0.0353313
0.0226834
0.0226834
0.0372856
0.0372856
0.0309893
0.0309893
0.0362545
0.0362545
0.0323469
0.0323469
0.0327644
0.0327644
0.0257831
0.0257831
0.0137012
0.0137012
0.0307723
0.0307723
0.0374511
0.0374511
0.0369968
0.0369968
0.0365992
0.0365992
0.0293939
0.0293939
0.0370204
0.0370204
0.0106424
0.0106424
0.0247016
0.0247016
0.0294496
0.0294496
0.0379772
0.0379772
0.0331036
0.0331036
0.0280936
0.0280936
0.032304
0.032304
0.0373249
0.0373249
0.0351606
0.0351606
0.0374749
0.0374749
0.037723
0.037723
0.012424
0.012424
0.012424
0.0384377
0.0384377
0.0333016
0.0333016
0.0352905
0.0352905
0.0333542
0.0333542
0.0173579
0.0173579
0.0264731
0.0264731
0.036573
0.036573
0.0376152
0.0376152
0.0259807
0.0259807
0.0371425
0.0371425
0.0376798
0.0376798
0.0284629
0.0284629
0.0249709
0.0249709
0.0149022
0.0149022
0.0149022
0.0129578
0.0129578
0.0355171
0.0355171
0.0374112
0.0374112
0.037832
0.037832
0.0381074
0.0381074
0.030203
0.030203
0.0364581
0.0364581
0.0327747
0.0327747
0.0376664
0.0376664
0.0285563
0.0285563
0.0352081
0.0352081
0.0279599
0.0279599
0.036971
0.036971
0.0372368
0.0372368
0.0376345
0.0376345
0.0385554
0.0385554
0.0360382
0.0360382
0.0326437
0.0326437
0.0380447
0.0380447
0.0338911
0.0338911
0.0240961
0.0240961
0.0361352
0.0361352
0.0355194
0.0355194
0.0170237
0.0170237
0.0384212
0.0384212
0.0200795
0.0200795
0.0200795
0.0372629
0.0372629
0.0376622
0.0376622
0.0374263
0.0374263
0.0129378
0.0129378
0.0129378
0.0365868
0.0365868
0.0370753
0.0370753
0.0372807
0.0372807
0.0300577
0.0300577
0.0221851
0.0221851
0.0230731
0.0230731
0.0377191
0.0377191
0.0331166
0.0331166
0.0294501
0.0294501
0.0316829
0.0316829
0.0265349
0.0265349
0.0135739
0.0135739
0.0381246
0.0381246
0.036612
0.036612
0.0331528
0.0331528
0.0370492
0.0370492
0.0383172
0.0383172
0.0372626
0.0372626
0.0354489
0.0354489
0.0376447
0.0376447
0.0369342
0.0369342
0.0377035
0.0377035
0.0361207
0.0361207
0.0303789
0.0303789
0.0397033
0.0397033
0.0268381
0.0268381
0.0163496
0.0163496
0.0300619
0.0300619
0.027876
0.027876
0.0149351
0.0149351
0.0339706
0.0339706
0.0267283
0.0267283
0.0235152
0.0235152
0.0383751
0.0383751
0.0361797
0.0361797
0.0347049
0.0347049
0.0377304
0.0377304
0.0384665
0.0384665
0.0367455
0.0367455
0.0354096
0.0354096
0.0167633
0.0167633
0.0135137
0.0135137
0.0135137
0.0361798
0.0361798
0.0379469
0.0379469
0.0177424
0.0177424
0.0279566
0.0279566
0.0361651
0.0361651
0.0152436
0.0152436
0.0375784
0.0375784
0.0372919
0.0372919
0.03787
0.03787
0.0240325
0.0240325
0.0380472
0.0380472
0.0370774
0.0370774
0.012554
0.012554
0.0248371
0.0248371
0.0368984
0.0368984
0.0291994
0.0291994
0.0290285
0.0290285
0.0369947
0.0369947
0.0156312
0.0156312
0.0156312
0.0373928
0.0373928
0.0369171
0.0369171
0.0365136
0.0365136
0.03774
0.03774
0.0389355
0.0389355
0.0176019
0.0176019
0.0367363
0.0367363
0.0375402
0.0375402
0.0291442
0.0291442
0.0248863
0.0248863
0.0371739
0.0371739
0.0379373
0.0379373
0.0386675
0.0386675
0.0342528
0.0342528
0.0198107
0.0198107
0.0370821
0.0370821
0.0375469
0.0375469
0.0379323
0.0379323
0.0378437
0.0378437
0.0254906
0.0254906
0.0344515
0.0344515
0.037538
0.037538
0.0259102
0.0259102
0.0389345
0.0389345
0.0334788
0.0334788
0.0381337
0.0381337
0.0386061
0.0386061
0.0338005
0.0338005
0.0366813
0.0366813
0.0356895
0.0356895
0.0361686
0.0361686
0.0387952
0.0387952
0.0377125
0.0377125
0.0274611
0.0274611
0.0377937
0.0377937
0.036213
0.036213
0.0378161
0.0378161
0.0376415
0.0376415
0.0377859
0.0377859
0.0327817
0.0327817
0.026832
0.026832
0.0395682
0.0395682
0.0308209
0.0308209
0.0367795
0.0367795
0.0362653
0.0362653
0.0212398
0.0212398
0.0361195
0.0361195
0.0375325
0.0375325
0.0391157
0.0391157
0.0393268
0.0393268
0.0208423
0.0208423
0.0216792
0.0216792
0.0368277
0.0368277
0.0229759
0.0229759
0.0311591
0.0311591
0.0110047
0.0110047
0.0373491
0.0373491
0.0375993
0.0375993
0.0172105
0.0172105
0.0372294
0.0372294
0.0368733
0.0368733
0.0367119
0.0367119
0.0362495
0.0362495
0.0394519
0.0394519
0.0377387
0.0377387
0.0397165
0.0397165
0.0346165
0.0346165
0.0374894
0.0374894
0.0377337
0.0377337
0.0360251
0.0360251
0.0379637
0.0379637
0.0387856
0.0387856
0.036621
0.036621
0.0368442
0.0368442
0.00936409
0.00936409
0.0368077
0.0368077
0.036694
0.036694
0.0396134
0.0396134
0.036137
0.036137
0.0362239
0.0362239
0.0301688
0.0301688
0.0383181
0.0383181
0.0382314
0.0382314
0.0356342
0.0356342
0.0358534
0.0358534
0.0267525
0.0267525
0.0362602
0.0362602
0.0371563
0.0371563
0.0376951
0.0376951
0.0221014
0.0221014
0.0392882
0.0392882
0.0386659
0.0386659
0.0362034
0.0362034
0.0375598
0.0375598
0.0150722
0.0150722
0.0150722
0.0382578
0.0382578
0.0397822
0.0397822
0.0366371
0.0366371
0.0364023
0.0364023
0.0237772
0.0237772
0.0282206
0.0282206
0.0304856
0.0304856
0.0288284
0.0288284
0.00967168
0.00967168
0.00967168
0.036325
0.036325
0.0352498
0.0352498
0.0362032
0.0362032
0.0381713
0.0381713
0.0384155
0.0384155
0.036823
0.036823
0.0394045
0.0394045
0.0372809
0.0372809
0.0376079
0.0376079
0.0371647
0.0371647
0.0364813
0.0364813
0.03396
0.03396
0.0366909
0.0366909
0.0348243
0.0348243
0.0340705
0.0340705
0.0366779
0.0366779
0.0351634
0.0351634
0.0349104
0.0349104
0.0249978
0.0249978
0.0390231
0.0390231
0.0360563
0.0360563
0.0343284
0.0343284
0.0245124
0.0245124
0.0399713
0.0399713
0.0361191
0.0361191
0.0363513
0.0363513
0.0334583
0.0334583
0.0361664
0.0361664
0.0388822
0.0388822
0.0373756
0.0373756
0.0361755
0.0361755
0.0357483
0.0357483
0.0142792
0.0142792
0.0374864
0.0374864
0.0391116
0.0391116
0.0359718
0.0359718
0.0369421
0.0369421
0.0383284
0.0383284
0.0215289
0.0215289
0.0361281
0.0361281
0.0142948
0.0142948
0.0142948
0.0364341
0.0364341
0.0272528
0.0272528
0.0388004
0.0388004
0.0363291
0.0363291
0.0366435
0.0366435
0.0401296
0.0401296
0.0381627
0.0381627
0.0368014
0.0368014
0.0371976
0.0371976
0.0386822
0.0386822
0.035083
0.035083
0.0367463
0.0367463
0.0389788
0.0389788
0.0362003
0.0362003
0.0320784
0.0320784
0.0396758
0.0396758
0.0216059
0.0216059
0.03817
0.03817
0.0319121
0.0319121
0.0363142
0.0363142
0.0362079
0.0362079
0.0369584
0.0369584
0.0374085
0.0374085
0.0294249
0.0294249
0.0379454
0.0379454
0.0397678
0.0397678
0.0251796
0.0251796
0.0348522
0.0348522
0.0354844
0.0354844
0.0312767
0.0312767
0.0236817
0.0236817
0.0370185
0.0370185
0.0360764
0.0360764
0.0363958
0.0363958
0.0362317
0.0362317
0.0371717
0.0371717
0.0364305
0.0364305
0.0361289
0.0361289
0.0399386
0.0399386
0.0380081
0.0380081
0.0361549
0.0361549
0.0365113
0.0365113
0.0362728
0.0362728
0.0351811
0.0351811
0.0158271
0.0158271
0.036198
0.036198
0.0398738
0.0398738
0.0351602
0.0351602
0.0361257
0.0361257
0.0341612
0.0341612
0.0361116
0.0361116
0.0364217
0.0364217
0.0362268
0.0362268
0.0256925
0.0256925
0.0358729
0.0358729
0.0367261
0.0367261
0.0360301
0.0360301
0.0386495