/*--------------------------------*- C++ -*----------------------------------*\
  =========                 |
  \\      /  F ield         | OpenFOAM: The Open Source CFD Toolbox
   \\    /   O peration     | Website:  https://openfoam.org
    \\  /    A nd           | Version:  8
     \\/     M anipulation  |
\*---------------------------------------------------------------------------*/
FoamFile
{
    version     2.0;
    format      ascii;
    class       volScalarField;
    location    "0.65";
    object      p_rgh;
}
// * * * * * * * * * * * * * * * * * * * * * * * * * * * * * * * * * * * * * //

dimensions      [1 -1 -2 0 0 0 0];

internalField   nonuniform List<scalar> 
1924
(
87.3795
-3.20849
-3.18379
-2.93628
-3.13602
-3.07122
-2.8724
-3.01783
1.55103
-3.06908
10.623
10.6301
590.824
6.68379
6.1558
5.42661
125.994
-1.79032
664.299
-5.77537
1099.25
-8.04528
10.5672
-5.58234
-8.15179
-8.44692
-8.12447
-2.97127
-3.59412
-2.20834
47.1666
-8.21582
12.1115
59.6771
-3.09969
9.60735
-8.12732
-3.44208
-2.97648
62.1467
-8.17946
1069.42
-8.41439
10.9754
-3.12461
-4.28075
278.255
-2.98388
999.317
1044.47
781.17
373.982
-8.20229
309.286
-6.33113
-3.02658
672.616
-3.19827
-3.07421
15.2998
55.2122
-1.90795
792.417
-3.27161
257.359
-2.86659
-5.63368
7.49235
-4.09326
687.803
80.0269
-5.69371
-3.69445
-2.61539
-2.6736
19.1456
-2.73284
-2.67937
-2.88717
866.007
-3.29215
-7.96312
-2.80984
1128.1
101.789
13.3512
-3.00869
-6.19412
1012.72
441.626
-3.9374
-5.82045
-5.44145
-6.43383
291.369
253.522
-2.69578
-3.28965
20.0384
58.2293
-3.8533
600.958
16.9144
13.2347
-6.54386
-2.77668
-4.6983
-6.84893
-9.95998
-5.46801
-2.69936
-4.5234
-3.19296
-2.13531
-2.79336
1103.44
-3.62774
2.51897
-8.26102
-2.76461
809.823
935.973
1038.09
711.679
-7.51697
-6.70239
3.6598
-2.70601
-5.29319
864.44
-2.65381
-4.48639
62.8929
-2.82185
109.314
-6.32303
-3.76563
-4.29031
-5.66742
-3.05365
-2.98668
-7.23818
757.524
13.1798
-3.90231
861.119
-6.76996
58.8089
-12.8188
-8.65179
-2.92807
934.212
49.7277
-5.04317
-3.67929
-7.03304
961.722
-3.57494
-2.64939
34.6664
-0.569259
-2.65414
-4.66225
921.737
-2.6677
-6.50143
-7.02879
973.998
-2.73433
-5.60923
-2.98856
-3.477
-2.83869
18.7366
-2.9227
-7.14403
-0.535682
395.63
10.1462
-2.51648
-7.60603
-4.85701
-2.72698
-7.27326
999.235
-2.82306
2.76456
-7.66688
-2.69708
-2.33183
-6.68148
3.78208
-2.66218
4.68649
-7.51646
916.837
-7.83084
-7.11749
-7.63338
-7.62696
171.913
-2.93301
-6.43565
9.61002
-2.74895
-7.65251
8.37203
70.5027
55.1884
56.1465
899.752
-5.44579
-5.75779
-7.62453
-7.65489
-2.74282
-12.533
-6.80404
8.73979
-2.76253
-7.26321
-2.80394
-6.79128
-5.13549
9.67537
-7.74126
-2.69043
-2.94635
-8.22979
-7.74972
50.1759
16.1684
-7.65986
55.5117
-7.77131
30.2729
-0.116104
8.64481
-6.97519
892.167
-5.58229
-7.73443
-5.07903
42.1695
134.652
57.2895
5.69655
-2.80042
-2.73052
-2.90612
-1.8593
876.944
-8.21545
-5.82121
-2.72463
9.24537
-8.89373
-7.82491
-7.44784
-3.93952
-7.41962
-7.47964
15.7758
-2.73167
-8.22055
-2.77405
1045.68
-2.85013
-6.42878
738.191
-7.66341
-2.52736
-3.05114
-7.84172
-10.8368
-3.35864
-5.27225
-7.69261
-5.70969
-7.76677
563.001
893.331
18.2668
-8.20116
822.797
-2.74313
-2.7775
867.338
-6.84794
-7.77109
-7.70769
-2.90039
-7.60726
10.1878
1066.16
-2.64332
7.44432
55.6336
-2.82041
10.0038
871.106
-6.45731
-4.48483
-13.3205
-6.36841
-7.89153
1046.19
-4.35305
-7.83884
-2.90781
80.0991
10.1288
-8.15268
-8.37361
-2.73571
1048.46
-7.54696
-6.72798
-6.99014
-7.66087
-2.70814
-7.68169
-6.16564
-1.99633
-7.92047
-3.12322
-7.72923
-7.89316
-2.79543
-1.9991
-7.73955
-8.92422
-8.48429
-6.23634
-2.77413
-7.55691
-11.0138
0.809913
-7.94202
-1.20148
-3.06347
-0.92399
-8.34894
30.0457
10.2032
-6.21161
11.4977
-5.13117
-1.48347
-7.93766
-8.99282
357.556
-2.21309
1.46689
99.4152
-2.96654
966.756
-6.89858
-7.89917
252.359
-7.46296
11.0241
-4.11916
-10.3926
-8.6758
7.80518
-8.61309
-5.97136
-7.9455
-7.39783
-2.59256
-7.68126
-8.04092
-5.28146
12.1541
742.188
10.9994
10.2034
-2.72207
-4.32711
-6.30776
-2.92801
-7.74923
-8.04249
-7.76403
6.2678
-2.71907
-9.89051
-0.473941
7.58458
1.90221
-8.69991
-7.79098
-8.91465
-2.51279
177.827
-9.54288
-6.06222
4.99851
-6.62325
844.534
-2.87227
12.1098
-6.51406
970.671
-11.2797
-3.64284
-8.55066
-7.97297
-9.08324
2.4828
-8.60057
-6.81007
8.3957
-7.72917
-14.9282
-3.30993
11.9503
12.8831
-2.64521
11.5931
-4.99929
-3.48389
34.2134
-9.12526
-3.79256
-2.80328
-3.40105
-9.12919
12.7214
-10.839
-3.23487
-12.2497
-8.39783
-7.87296
15.7905
-3.86559
925.723
2.21722
-2.34003
-7.8378
-7.38315
-7.93247
11.8383
-4.35967
272.733
20.8919
-2.84346
-7.76732
-10.0406
7.70389
-9.20379
-8.00505
8.22044
-10.8642
-7.76132
-3.76496
4.84801
-8.1861
-5.98131
-3.11052
2.18815
1027.59
-8.26954
-6.68322
-9.53181
-8.56524
-7.7436
-7.08615
-2.88454
-7.62064
-8.86678
-2.87591
-3.6625
-4.93247
-3.06026
-3.89321
-6.92518
-5.22838
-6.17295
20.2479
-7.39916
-12.2103
-7.66495
-8.83884
-4.58557
14.9745
-4.67798
-12.7153
-2.87999
1004.17
-13.8643
-8.53281
-2.64276
-3.59413
-3.45278
-5.25501
-11.2335
9.34076
-2.02787
-3.53466
-5.41283
-8.01334
12.4912
18.7416
-17.1927
12.5792
-12.1821
-9.84547
-3.62903
-2.98568
-3.37939
-10.7452
-7.90792
-9.75155
-9.27052
10.2386
-7.74942
-7.26805
-6.24775
-7.95432
7.9878
-3.25175
-3.63734
-7.8285
-7.71502
-2.87254
11.6009
-0.708172
-7.69319
-7.58402
-6.85334
-9.44613
22.4793
11.9744
-8.28392
-7.60861
-5.69534
319.955
13.1309
-11.4312
-1.93394
823.596
-2.94826
-3.57448
-14.5388
-2.99071
-2.7884
-7.30678
1.05252
-3.67298
-12.5393
-5.71263
-8.67458
-9.95564
22.2698
11.404
766.665
6.73035
-3.64999
11.6097
-7.53995
-6.75282
-12.0961
-8.04706
1.90567
-3.19497
-2.5445
-3.07513
-11.116
-3.4963
-13.0999
-13.7946
-11.1062
-2.92555
-9.45389
23.1456
12.6902
-3.3367
-5.19505
6.88927
-6.28855
-7.11468
-10.605
404.292
345.615
-3.41272
35.3395
-3.36753
-1.08391
11.3094
-8.18966
637.017
684.494
794.646
-3.36054
-8.87997
-2.80854
-7.78931
-7.37958
259.407
9.4334
-7.79196
-3.41958
-9.87493
-6.90522
-7.7494
-3.10532
-3.91945
34.6129
11.9431
-5.15367
23.4158
-2.94783
-11.517
-6.91579
-7.76422
-1.65343
318.059
-1.85234
-3.57499
-3.31333
-2.58798
10.0263
-7.46299
-2.8267
10.6072
-6.35124
-7.49292
16.8556
-5.84276
-12.1676
-2.91383
-4.49307
-9.27212
256.544
-14.639
12.5883
-15.5659
-3.5244
-13.2001
-12.5571
-11.6783
-15.2017
-19.0345
-4.75438
7.95939
-4.31436
-15.1617
-8.12544
-7.33704
-12.0942
-3.30733
-7.68996
12.6731
-10.9179
-6.89907
-3.06442
-13.4682
-1.16394
-5.02638
235.115
-2.91406
-3.45773
-10.2606
-3.76301
11.1468
-5.91763
-8.19738
-10.8839
-13.3109
-3.21951
996.051
-3.12283
-4.84659
-3.40522
-7.10091
-5.3716
751.435
21.0621
-3.45984
-3.66655
-6.87051
-7.786
9.93545
-7.54862
-8.95343
864.308
-3.57798
13.5819
-0.521091
-7.14303
-2.29813
-15.6262
-6.34626
9.28198
12.9855
-3.01405
-12.6703
-12.8768
-3.3163
-3.59826
-16.8779
28.5467
732.066
-16.8343
-14.8143
-15.9025
-3.54033
-9.48652
-7.58057
702.221
-14.1859
856.954
-12.3988
-7.65292
-12.7263
-6.52183
1.37502
486.071
-2.98943
-5.91829
-3.17533
12.9714
-5.42709
1059.35
568.623
628.393
5.29311
-3.49781
-11.9832
22.0742
-2.58643
-13.6307
-7.26739
11.4772
-8.33147
-15.7969
-6.48458
-3.06594
746.673
-10.4622
-3.27362
283.072
8.93029
12.431
-11.0417
12.2673
-8.91118
-3.45529
-13.4542
-20.4081
-7.01444
-4.6542
-3.54304
-7.66032
-3.14857
722.431
851.656
-5.97793
-2.94544
-9.70721
-3.93761
-3.3929
-14.0817
15.7032
-16.5279
-12.6226
15.514
-17.7194
-5.4886
-16.4086
-1.09332
-14.9697
47.4425
-3.62384
-10.3226
-16.0516
12.3359
-16.4523
6.03274
-3.10923
-7.40879
-6.93383
-6.03008
-2.92041
-4.82356
-18.1587
-2.8768
-1.80931
25.0032
-5.89442
-3.73365
-14.1507
-13.5738
-3.35233
-3.58453
265.056
-17.8805
-5.18259
986.739
1.01113
-9.08338
-3.37992
-3.2029
-4.54947
-3.5013
-5.53156
-12.4023
-11.8035
-2.96028
-3.52372
-2.44795
322.093
-7.3518
17.2629
-6.01817
724.51
-14.4506
-8.17208
12.2505
-7.71063
-4.2271
316.152
-8.2432
-3.48963
-12.9117
-7.12358
-11.4994
19.549
-5.06168
-3.28582
-9.18338
-17.5281
-13.9363
-16.689
-3.07841
-6.01375
-3.44211
981.93
10.0789
409.547
-19.5322
-15.4692
982.071
-5.56538
-19.724
-13.5026
-5.50665
-4.56013
-7.19373
-9.73092
25.2675
-3.16847
-5.0941
-17.5783
11.6518
-10.4139
776.01
-3.03609
-6.59233
-4.26027
-16.7505
-3.01716
0.463363
-14.8651
739.571
-12.1838
61.6411
19.9179
-3.40702
-5.60077
80.6235
-7.48833
-11.5774
-3.07353
-3.25174
61.0096
1000.01
-19.4884
-3.33388
-8.74361
-5.54336
-2.94463
-22.7114
-14.3492
-13.8245
9.57243
-8.87266
-7.56128
-12.4754
-3.35069
537.653
-3.72797
-3.70104
-3.64986
-3.56149
-5.09662
1.36743
-4.59062
22.6686
-2.95131
-9.99764
857.845
-18.4805
-13.7957
-3.04359
352.785
-21.0745
-2.65975
-20.4417
-3.28566
-3.52773
279.38
811.604
-11.7274
131.902
-17.3487
-11.0409
-3.11464
-3.0213
-4.73781
-12.6653
850.815
-3.47743
21.7357
-3.31832
8.11569
-6.16556
-21.4999
-11.9661
-5.1026
-14.9005
-4.20807
-17.8194
47.4863
-5.38327
-3.2908
-21.3908
-10.6496
-3.19616
280.407
-3.44688
261.839
810.515
-19.6226
-12.193
-16.7166
129.283
-4.72297
17.2292
-14.5285
3.04644
-5.34915
-6.3098
370.163
44.3609
1117.48
38.7167
-5.01536
124.231
-3.40536
-8.63622
-6.57364
781.081
-14.3758
-4.04141
-13.174
-21.836
668.331
-3.27127
-10.3585
-3.09308
-20.8323
-3.976
-3.19936
-24.6601
-23.2101
-7.28822
-7.2091
-4.73602
-23.4614
-0.934832
-11.1519
-18.1639
-8.64691
-12.6343
364.768
-4.44288
-2.11112
-8.39487
-13.0664
-3.3723
-11.7374
-3.54969
-3.16998
10.6034
-5.79492
-5.3066
29.6534
-16.8022
187.843
18.4881
-4.97501
-8.63424
14.8349
-4.42791
7.48552
-3.59795
741.042
-11.6351
182.225
-4.65971
-21.1287
-3.56267
-3.50889
-20.0963
-23.2259
-9.5
-13.9075
-3.72648
-3.47069
-3.67684
915.575
-3.24498
-3.33134
-17.7403
-10.7408
-10.5774
-2.83158
-1.10645
12.0838
11.6936
-3.48034
-6.59433
922.436
833.727
-11.1171
-5.31152
-1.83515
-13.0769
1.65484
-4.42797
-5.45175
-7.72412
-4.6242
-22.1358
-3.43868
-25.1104
-24.4603
-16.2672
-11.6483
-3.78478
69.1985
-7.17706
-3.10114
-6.27007
-20.8134
-3.81397
-9.34172
0.864999
-25.7699
-3.79454
-4.38543
-2.53181
42.0045
-3.30668
-3.96975
-11.0934
-3.41573
734.779
-4.38115
427.546
-8.92713
-11.7495
-25.6332
-13.3349
929.723
-4.44163
-10.229
-13.5873
-2.96201
-21.7836
-10.5877
490.361
107.65
11.2013
-3.39477
-23.7712
-4.35834
-27.7448
-11.6447
-4.67728
-2.95744
-3.01708
-10.7384
-20.2924
-4.16957
-2.97547
-11.7059
201.963
-0.296029
-9.98542
11.7104
-2.93414
-26.1631
226.341
-1.15927
-28.0959
-5.37331
-25.503
166.545
-6.10488
321.97
407.593
-6.51326
96.249
-4.81265
-3.60598
-13.7482
-18.6182
-28.2819
52.1748
-4.19887
-3.57288
-3.52766
-7.17923
-17.194
-10.8079
-3.05647
-3.3771
-4.3478
-7.18511
-4.1327
-10.2096
2.1489
-10.2625
-3.50106
-3.46847
801.494
-12.588
-4.12259
462.955
871.078
-8.44588
-7.79084
-3.13263
-7.18379
-11.5845
-3.05594
1132.08
-15.1931
-3.44554
-4.11664
-4.52132
-3.49046
-3.64123
66.0319
-8.84385
150.826
-26.3042
-28.2696
724.082
-3.20117
-3.74199
962.441
501
-25.0471
-3.40828
-8.55075
-3.67656
12.3033
2.00112
403.26
-6.62412
-4.87738
-22.2878
848.561
-2.73003
-5.45426
-6.27959
-9.57767
-4.01814
14.4765
-31.2515
-0.631359
945.581
-3.15534
-31.0246
-26.329
-3.26988
-24.5474
-30.2865
301.804
-2.89671
-3.8548
858.616
-19.37
-12.5316
60.0661
-7.54945
-3.93592
-20.1104
6.49363
-11.5023
-11.7632
-10.1335
856.587
-3.37955
-3.93162
-15.9363
-3.5422
163.802
-3.96023
-7.63261
202.632
-3.73612
-4.70448
-3.52261
1016.85
1043.1
-31.6823
-5.39038
-11.8899
213.849
-3.91965
133.542
1.03836
240.135
-3.32569
-3.50043
-3.98302
-31.6754
-3.54291
-3.7168
-3.69654
-3.62693
9.17818
-9.61113
7.80044
-3.70412
-4.33169
-15.8641
763.296
865.075
-3.85038
-6.24375
-28.5177
-20.4768
7.45474
-30.6001
-17.511
-3.92088
-7.73612
-5.3899
-2.58052
-3.47717
862.984
864.89
-26.8724
-4.74457
-15.93
946.256
864.028
-2.42938
102.877
2.76556
-14.7506
7.41587
-3.56604
-34.1317
-3.45855
364.79
-11.6233
-3.44731
-18.0259
-3.81449
-32.6509
11.5743
237.756
250.864
-6.48572
-3.22527
948.285
-4.21308
-3.38819
-35.2962
-3.65062
-22.2839
-14.142
-3.32036
-8.02997
-4.63214
858.708
-13.1499
71.9943
-3.31618
-3.56913
-36.3608
-1.61562
-2.97555
-35.813
-5.25258
859.621
-3.57449
-3.41818
-3.43643
-5.3528
-2.96075
11.2993
-3.309
-2.77804
-2.95429
276.331
-2.17205
-3.47066
-2.77186
-14.2307
-3.12946
-19.2663
216.706
-3.15083
-3.55702
-3.11152
-2.62002
-35.6225
-3.01688
-2.99045
-3.48538
-7.60066
-8.54289
-3.7561
-7.05318
-35.0517
-36.074
158.763
-3.46488
173.697
-3.70149
-3.10122
-3.10483
847.343
11.1942
-2.38386
963.585
-30.9805
-3.11775
11.7233
-6.74507
-1.89458
-3.19301
-3.57668
263.682
-3.17654
-2.34716
-3.31351
-3.31715
1056.55
1023.69
732.195
861.936
-2.37943
833.903
-36.3696
-3.56626
-39.0646
-3.90728
-3.5064
-29.2625
665.544
-42.3894
-3.03338
-3.00664
-3.67505
-3.2267
864.165
-3.24653
-39.8423
-20.6756
-28.6888
26.1687
110.121
20.226
-12.8892
970.131
862.823
873.328
-58.1255
-3.3093
866.023
-3.22938
-18.197
340.338
14.4747
-1.95927
18.2864
-3.45118
794.838
1.03719
-0.706144
822.162
-1.94349
-2.21576
867.192
-3.30371
4.27868
-41.637
362.785
-9.67941
-40.7464
-2.65605
-10.7922
-2.93292
-21.1832
-8.32126
-40.5343
33.4401
-2.83021
878.151
-4.95773
-3.42772
-42.8568
220.963
-7.77844
942.5
864.571
15.3103
-3.59196
-3.48476
-39.8503
-9.08264
-3.7337
26.1905
-1.60271
-16.8612
-3.36477
-3.42049
-3.29999
799.551
-2.82651
-3.44743
-1.48505
-3.01319
-3.23672
-34.1843
44.1674
-49.4635
-43.8506
49.2318
-8.25869
-3.31091
-3.4745
-2.58211
-3.41739
-3.44672
24.2114
-2.83792
-45.6095
-42.827
189.386
-49.5743
-4.77797
-2.6903
-31.7327
-2.62042
-48.2488
-3.43936
-44.8065
-3.58785
-48.7145
-2.9394
865.577
-3.48828
867.102
-3.56829
717.972
-5.58222
868.119
-1.33599
-1.59506
-3.34577
-33.3145
868.166
-56.8164
-1.50371
867.221
1031.14
993.312
543.149
-45.4599
-3.4247
-3.49793
867.646
-3.36963
-3.37103
321.555
-18.0317
894.297
-53.1848
-53.4126
-1.20814
-56.0087
-27.5853
867.113
-3.43115
27.6749
-44.0977
-50.3919
-3.39358
-49.2751
874.312
34.6107
-3.06129
879.226
55.1126
-36.5972
-35.371
-50.4617
-3.27926
7.77378
-12.4393
-1.03599
47.9773
-59.4037
-3.33841
505.091
-2.02257
4.10515
-49.7405
-8.41279
-55.2573
-3.23426
-18.5234
-60.6162
-3.00711
438.347
880.611
876.404
7.65521
-49.6718
-2.53364
-43.5969
-2.78698
-58.4924
869.667
-2.52663
-52.7228
-48.9777
-2.60272
1433.45
518.804
875.341
17.8075
-2.9067
-30.8885
1033.3
-3.34143
-63.4161
-56.8556
-3.307
-50.0982
70.1964
143.821
-1.67691
-41.4061
25.8261
-3.38623
20.227
-60.0896
-17.9408
868.134
-3.17457
-1.62715
-0.667581
380.02
-3.39247
-3.41429
-50.2937
-43.0673
-3.47752
-3.2794
-54.9392
-3.4797
-58.0239
652.583
-3.39268
-3.27472
-47.0227
2555.44
-3.35071
24.9931
-3.47285
771.97
873.944
875.007
-3.30489
-54.1834
-56.3754
-46.1301
-1.09359
-42.3593
870.273
1227.27
-3.43786
-53.3416
-3.34944
-3.25214
-47.9779
-3.35236
-47.3242
-2.98684
-62.8114
-3.50911
-3.4261
-3.42525
717.615
-9.22371
-3.30953
-57.6221
-3.41239
-27.9145
-3.22096
-27.384
-3.08822
870.318
-3.38761
23.661
1096.72
-55.9088
-2.81177
1167.03
-3.29418
-48.9178
-43.442
-1.62346
-46.1936
-0.666396
-0.867984
-3.3311
-3.41549
-2.54912
-3.24305
-47.3037
-2.61531
-3.49313
-43.9861
878.179
-50.4436
-3.05028
-48.9368
-3.36833
-57.7845
-3.32908
2702.63
1784.3
-3.28317
872.843
-5.03632
-3.25005
-3.24328
-3.28034
-40.4806
-32.2933
-2.91703
-3.24023
-3.22398
-41.8773
-3.27889
-44.5082
-3.21771
871.2
871.744
-36.2965
-3.33108
-3.21434
1218.95
-7.85628
-36.8097
-0.663972
-3.19963
-3.1006
-43.1024
-3.24457
-3.73195
-6.24062
-34.6907
-36.4302
-41.2801
-75.4554
-3.32481
-3.25942
-16.7624
-3.18192
-33.3581
-21.2285
-17.4221
1223.74
-36.5099
-3.18137
-44.1155
872.549
873.55
-3.20265
-17.1444
-3.1894
-3.03709
-2.99268
-3.18558
-3.21551
-16.7549
-3.18659
-88.438
-3.16838
-3.2125
-13.244
-3.19457
-32.156
-3.41066
-44.9766
-41.87
-3.16902
-33.1941
-3.97012
-2.64912
-3.16742
-3.3788
-3.17299
-3.1393
-31.3423
-3.07404
-26.5371
14.3455
-21.1128
-45.1933
-130.701
-115.794
-3.10737
1492.79
-3.11551
-14.4211
23.0032
-3.16291
-3.14498
-3.14426
-3.06756
-3.06634
-3.08545
-17.1519
-3.12533
-24.5224
5.27456
-3.1457
-3.12672
-3.156
-55.7725
-3.1196
59.7572
79.3375
12.4308
-3.13562
-3.139
-31.4905
-3.08774
-3.15289
-28.5376
-3.12724
-3.12401
-19.4351
-3.41367
-3.15087
-3.14798
-3.1552
-3.14499
-3.1316
872.233
871.325
-3.13934
871.755
-3.14537
871.396
8.5477
-3.82071
-7.39476
-16.6391
-42.9878
-2.98437
-7.13388
-6.77738
36.4145
13.8958
-3.12272
-3.12798
-3.03881
-3.14394
-3.14184
-3.1086
-3.10274
-3.1433
172.531
172.358
77.9135
63.3487
8.89972
15.25
-3.08866
-3.1309
-2.73683
-3.12662
-3.09962
-3.11413
1623.23
1972.51
844.828
802.506
796.718
2372.55
1817.02
-8.43134
234.677
1846.35
2155.51
996.49
-2.72153
829.97
305.123
2498.62
842.172
-8.47798
980.557
831.109
-8.02124
853.491
482.5
-7.93041
831.415
466.239
406.768
893.077
933.368
827.375
950.211
893.755
920.968
273.963
811.791
845.944
1075.81
1124.3
1116.3
846.174
-7.78409
-8.43308
972.278
818.76
528.183
845.756
842.088
851.2
575.51
-2.72188
1134.85
1000.23
1008.16
1016.79
889.78
939.124
876.352
906.921
952.427
922.501
1011.37
1014.09
871.492
-7.72975
1131.9
-2.72826
966.237
1116.1
279.416
1123.09
993.158
990.672
-7.79133
1069.76
1026.04
257.137
1127.45
1019.84
1060.61
680.818
1004.72
-0.763322
917.812
-7.27372
500.226
616.809
2.86412
1017.9
872.2
993.226
383.945
-7.12859
-5.47216
958.866
953.517
1009.12
-7.05279
-3.47602
980.495
6.47112
-4.26373
997.027
-6.55311
5.98209
528.858
-8.17615
529.794
1062.71
1142.86
955.716
-7.60629
999.444
984.069
-2.45664
)
;

boundaryField
{
    patch0
    {
        type            fixedFluxPressure;
        gradient        uniform 0;
        value           nonuniform List<scalar> 
4010
(
87.3795
87.3795
-3.20849
-3.20849
-3.18379
-3.18379
-2.93628
-2.93628
-3.13602
-3.13602
-3.07122
-3.07122
-2.8724
-2.8724
-3.01783
-3.01783
1.55103
1.55103
-3.06908
-3.06908
10.623
10.623
10.6301
10.6301
590.824
590.824
6.68379
6.68379
6.1558
6.1558
5.42661
5.42661
125.994
125.994
-1.79032
-1.79032
664.299
664.299
-5.77537
-5.77537
1099.25
1099.25
-8.04528
-8.04528
10.5672
10.5672
-5.58234
-5.58234
-8.15179
-8.15179
-8.44692
-8.44692
-8.12447
-8.12447
-2.97127
-2.97127
-3.59412
-3.59412
-2.20834
-2.20834
47.1666
47.1666
-8.21582
-8.21582
12.1115
12.1115
59.6771
59.6771
-3.09969
-3.09969
9.60735
9.60735
-8.12732
-8.12732
-3.44208
-3.44208
-2.97648
-2.97648
62.1467
62.1467
-8.17946
-8.17946
1069.42
1069.42
-8.41439
-8.41439
10.9754
10.9754
-3.12461
-3.12461
-4.28075
-4.28075
278.255
278.255
-2.98388
-2.98388
999.317
999.317
1044.47
1044.47
781.17
781.17
373.982
373.982
-8.20229
-8.20229
309.286
309.286
-6.33113
-6.33113
-3.02658
-3.02658
672.616
672.616
-3.19827
-3.19827
-3.07421
-3.07421
15.2998
15.2998
55.2122
55.2122
-1.90795
-1.90795
792.417
792.417
-3.27161
-3.27161
257.359
257.359
-2.86659
-2.86659
-5.63368
-5.63368
7.49235
7.49235
-4.09326
-4.09326
687.803
687.803
80.0269
80.0269
-5.69371
-5.69371
-3.69445
-3.69445
-2.61539
-2.61539
-2.6736
-2.6736
19.1456
19.1456
-2.73284
-2.73284
-2.67937
-2.67937
-2.88717
-2.88717
866.007
866.007
-3.29215
-3.29215
-7.96312
-7.96312
-2.80984
-2.80984
1128.1
1128.1
101.789
101.789
13.3512
13.3512
-3.00869
-3.00869
-6.19412
-6.19412
1012.72
1012.72
441.626
441.626
-3.9374
-3.9374
-5.82045
-5.82045
-5.44145
-5.44145
-6.43383
-6.43383
291.369
291.369
253.522
253.522
-2.69578
-2.69578
-3.28965
-3.28965
20.0384
20.0384
58.2293
58.2293
-3.8533
-3.8533
600.958
600.958
16.9144
16.9144
13.2347
13.2347
-6.54386
-6.54386
-2.77668
-2.77668
-4.6983
-4.6983
-6.84893
-6.84893
-9.95998
-9.95998
-5.46801
-5.46801
-2.69936
-2.69936
-4.5234
-4.5234
-3.19296
-3.19296
-2.13531
-2.13531
-2.79336
-2.79336
1103.44
1103.44
-3.62774
-3.62774
2.51897
2.51897
-8.26102
-8.26102
-2.76461
-2.76461
809.823
809.823
935.973
935.973
1038.09
1038.09
711.679
711.679
-7.51697
-7.51697
-6.70239
-6.70239
3.6598
3.6598
-2.70601
-2.70601
-5.29319
-5.29319
864.44
864.44
-2.65381
-2.65381
-4.48639
-4.48639
62.8929
62.8929
-2.82185
-2.82185
109.314
109.314
-6.32303
-6.32303
-3.76563
-3.76563
-4.29031
-4.29031
-5.66742
-5.66742
-3.05365
-3.05365
-2.98668
-2.98668
-7.23818
-7.23818
757.524
757.524
757.524
13.1798
13.1798
13.1798
-3.90231
-3.90231
861.119
861.119
-6.76996
-6.76996
58.8089
58.8089
-12.8188
-12.8188
-8.65179
-8.65179
-2.92807
-2.92807
934.212
934.212
934.212
49.7277
49.7277
-5.04317
-5.04317
-3.67929
-3.67929
-7.03304
-7.03304
961.722
961.722
-3.57494
-3.57494
-2.64939
-2.64939
34.6664
34.6664
-0.569259
-0.569259
-2.65414
-2.65414
-4.66225
-4.66225
921.737
921.737
-2.6677
-2.6677
-6.50143
-6.50143
-7.02879
-7.02879
973.998
973.998
-2.73433
-2.73433
-5.60923
-5.60923
-2.98856
-2.98856
-3.477
-3.477
-2.83869
-2.83869
18.7366
18.7366
-2.9227
-2.9227
-7.14403
-7.14403
-0.535682
-0.535682
395.63
395.63
10.1462
10.1462
-2.51648
-2.51648
-7.60603
-7.60603
-4.85701
-4.85701
-2.72698
-2.72698
-7.27326
-7.27326
999.235
999.235
-2.82306
-2.82306
2.76456
2.76456
-7.66688
-7.66688
-2.69708
-2.69708
-2.33183
-2.33183
-6.68148
-6.68148
3.78208
3.78208
-2.66218
-2.66218
4.68649
4.68649
-7.51646
-7.51646
916.837
916.837
916.837
-7.83084
-7.83084
-7.11749
-7.11749
-7.63338
-7.63338
-7.62696
-7.62696
171.913
171.913
-2.93301
-2.93301
-6.43565
-6.43565
9.61002
9.61002
-2.74895
-2.74895
-7.65251
-7.65251
8.37203
8.37203
70.5027
70.5027
55.1884
55.1884
56.1465
56.1465
56.1465
899.752
899.752
-5.44579
-5.44579
-5.75779
-5.75779
-7.62453
-7.62453
-7.65489
-7.65489
-2.74282
-2.74282
-12.533
-12.533
-6.80404
-6.80404
8.73979
8.73979
-2.76253
-2.76253
-7.26321
-7.26321
-2.80394
-2.80394
-6.79128
-6.79128
-5.13549
-5.13549
9.67537
9.67537
-7.74126
-7.74126
-2.69043
-2.69043
-2.94635
-2.94635
-8.22979
-8.22979
-7.74972
-7.74972
50.1759
50.1759
16.1684
16.1684
-7.65986
-7.65986
55.5117
55.5117
-7.77131
-7.77131
30.2729
30.2729
30.2729
-0.116104
-0.116104
8.64481
8.64481
-6.97519
-6.97519
892.167
892.167
892.167
-5.58229
-5.58229
-7.73443
-7.73443
-5.07903
-5.07903
42.1695
42.1695
134.652
134.652
57.2895
57.2895
5.69655
5.69655
-2.80042
-2.80042
-2.73052
-2.73052
-2.90612
-2.90612
-1.8593
-1.8593
876.944
876.944
-8.21545
-8.21545
-5.82121
-5.82121
-2.72463
-2.72463
9.24537
9.24537
-8.89373
-8.89373
-7.82491
-7.82491
-7.44784
-7.44784
-3.93952
-3.93952
-7.41962
-7.41962
-7.47964
-7.47964
15.7758
15.7758
-2.73167
-2.73167
-8.22055
-8.22055
-2.77405
-2.77405
1045.68
1045.68
-2.85013
-2.85013
-6.42878
-6.42878
738.191
738.191
-7.66341
-7.66341
-2.52736
-2.52736
-3.05114
-3.05114
-7.84172
-7.84172
-10.8368
-10.8368
-3.35864
-3.35864
-5.27225
-5.27225
-7.69261
-7.69261
-5.70969
-5.70969
-7.76677
-7.76677
563.001
563.001
893.331
893.331
893.331
18.2668
18.2668
-8.20116
-8.20116
822.797
822.797
-2.74313
-2.74313
-2.7775
-2.7775
867.338
867.338
-6.84794
-6.84794
-7.77109
-7.77109
-7.70769
-7.70769
-2.90039
-2.90039
-7.60726
-7.60726
10.1878
10.1878
1066.16
1066.16
-2.64332
-2.64332
7.44432
7.44432
55.6336
55.6336
-2.82041
-2.82041
10.0038
10.0038
871.106
871.106
871.106
-6.45731
-6.45731
-4.48483
-4.48483
-13.3205
-13.3205
-6.36841
-6.36841
-7.89153
-7.89153
1046.19
1046.19
-4.35305
-4.35305
-7.83884
-7.83884
-2.90781
-2.90781
80.0991
80.0991
10.1288
10.1288
-8.15268
-8.15268
-8.37361
-8.37361
-2.73571
-2.73571
1048.46
1048.46
-7.54696
-7.54696
-6.72798
-6.72798
-6.99014
-6.99014
-7.66087
-7.66087
-2.70814
-2.70814
-7.68169
-7.68169
-6.16564
-6.16564
-1.99633
-1.99633
-7.92047
-7.92047
-3.12322
-3.12322
-7.72923
-7.72923
-7.89316
-7.89316
-2.79543
-2.79543
-1.9991
-1.9991
-7.73955
-7.73955
-8.92422
-8.92422
-8.48429
-8.48429
-6.23634
-6.23634
-2.77413
-2.77413
-7.55691
-7.55691
-11.0138
-11.0138
0.809913
0.809913
-7.94202
-7.94202
-1.20148
-1.20148
-3.06347
-3.06347
-0.92399
-0.92399
-8.34894
-8.34894
30.0457
30.0457
10.2032
10.2032
-6.21161
-6.21161
11.4977
11.4977
-5.13117
-5.13117
-1.48347
-1.48347
-7.93766
-7.93766
-8.99282
-8.99282
357.556
357.556
-2.21309
-2.21309
1.46689
1.46689
99.4152
99.4152
-2.96654
-2.96654
966.756
966.756
-6.89858
-6.89858
-7.89917
-7.89917
252.359
252.359
-7.46296
-7.46296
11.0241
11.0241
-4.11916
-4.11916
-10.3926
-10.3926
-8.6758
-8.6758
7.80518
7.80518
-8.61309
-8.61309
-5.97136
-5.97136
-7.9455
-7.9455
-7.39783
-7.39783
-2.59256
-2.59256
-7.68126
-7.68126
-8.04092
-8.04092
-5.28146
-5.28146
12.1541
12.1541
742.188
742.188
10.9994
10.9994
10.2034
10.2034
-2.72207
-2.72207
-4.32711
-4.32711
-6.30776
-6.30776
-2.92801
-2.92801
-7.74923
-7.74923
-8.04249
-8.04249
-7.76403
-7.76403
6.2678
6.2678
-2.71907
-2.71907
-9.89051
-9.89051
-0.473941
-0.473941
7.58458
7.58458
1.90221
1.90221
-8.69991
-8.69991
-7.79098
-7.79098
-8.91465
-8.91465
-2.51279
-2.51279
177.827
177.827
177.827
-9.54288
-9.54288
-6.06222
-6.06222
4.99851
4.99851
-6.62325
-6.62325
844.534
844.534
-2.87227
-2.87227
12.1098
12.1098
-6.51406
-6.51406
970.671
970.671
970.671
-11.2797
-11.2797
-3.64284
-3.64284
-8.55066
-8.55066
-7.97297
-7.97297
-9.08324
-9.08324
2.4828
2.4828
-8.60057
-8.60057
-6.81007
-6.81007
8.3957
8.3957
-7.72917
-7.72917
-14.9282
-14.9282
-3.30993
-3.30993
11.9503
11.9503
12.8831
12.8831
-2.64521
-2.64521
11.5931
11.5931
-4.99929
-4.99929
-3.48389
-3.48389
34.2134
34.2134
-9.12526
-9.12526
-3.79256
-3.79256
-2.80328
-2.80328
-3.40105
-3.40105
-9.12919
-9.12919
12.7214
12.7214
-10.839
-10.839
-3.23487
-3.23487
-12.2497
-12.2497
-8.39783
-8.39783
-7.87296
-7.87296
15.7905
15.7905
-3.86559
-3.86559
925.723
925.723
2.21722
2.21722
-2.34003
-2.34003
-7.8378
-7.8378
-7.38315
-7.38315
-7.93247
-7.93247
11.8383
11.8383
-4.35967
-4.35967
272.733
272.733
272.733
20.8919
20.8919
-2.84346
-2.84346
-7.76732
-7.76732
-10.0406
-10.0406
7.70389
7.70389
-9.20379
-9.20379
-8.00505
-8.00505
8.22044
8.22044
-10.8642
-10.8642
-7.76132
-7.76132
-3.76496
-3.76496
4.84801
4.84801
-8.1861
-8.1861
-5.98131
-5.98131
-3.11052
-3.11052
2.18815
2.18815
1027.59
1027.59
-8.26954
-8.26954
-6.68322
-6.68322
-9.53181
-9.53181
-8.56524
-8.56524
-7.7436
-7.7436
-7.08615
-7.08615
-2.88454
-2.88454
-7.62064
-7.62064
-8.86678
-8.86678
-2.87591
-2.87591
-3.6625
-3.6625
-4.93247
-4.93247
-3.06026
-3.06026
-3.89321
-3.89321
-6.92518
-6.92518
-5.22838
-5.22838
-6.17295
-6.17295
20.2479
20.2479
-7.39916
-7.39916
-12.2103
-12.2103
-7.66495
-7.66495
-8.83884
-8.83884
-4.58557
-4.58557
14.9745
14.9745
-4.67798
-4.67798
-12.7153
-12.7153
-2.87999
-2.87999
1004.17
1004.17
-13.8643
-13.8643
-8.53281
-8.53281
-2.64276
-2.64276
-3.59413
-3.59413
-3.45278
-3.45278
-5.25501
-5.25501
-11.2335
-11.2335
9.34076
9.34076
-2.02787
-2.02787
-3.53466
-3.53466
-5.41283
-5.41283
-8.01334
-8.01334
12.4912
12.4912
18.7416
18.7416
-17.1927
-17.1927
12.5792
12.5792
-12.1821
-12.1821
-9.84547
-9.84547
-3.62903
-3.62903
-2.98568
-2.98568
-3.37939
-3.37939
-10.7452
-10.7452
-7.90792
-7.90792
-9.75155
-9.75155
-9.27052
-9.27052
10.2386
10.2386
-7.74942
-7.74942
-7.26805
-7.26805
-6.24775
-6.24775
-7.95432
-7.95432
7.9878
7.9878
-3.25175
-3.25175
-3.63734
-3.63734
-7.8285
-7.8285
-7.71502
-7.71502
-2.87254
-2.87254
11.6009
11.6009
-0.708172
-0.708172
-7.69319
-7.69319
-7.58402
-7.58402
-6.85334
-6.85334
-9.44613
-9.44613
22.4793
22.4793
11.9744
11.9744
-8.28392
-8.28392
-7.60861
-7.60861
-5.69534
-5.69534
319.955
319.955
13.1309
13.1309
-11.4312
-11.4312
-1.93394
-1.93394
823.596
823.596
-2.94826
-2.94826
-3.57448
-3.57448
-14.5388
-14.5388
-2.99071
-2.99071
-2.7884
-2.7884
-7.30678
-7.30678
1.05252
1.05252
-3.67298
-3.67298
-12.5393
-12.5393
-5.71263
-5.71263
-8.67458
-8.67458
-9.95564
-9.95564
22.2698
22.2698
11.404
11.404
766.665
766.665
6.73035
6.73035
-3.64999
-3.64999
11.6097
11.6097
-7.53995
-7.53995
-6.75282
-6.75282
-12.0961
-12.0961
-8.04706
-8.04706
1.90567
1.90567
-3.19497
-3.19497
-2.5445
-2.5445
-3.07513
-3.07513
-11.116
-11.116
-3.4963
-3.4963
-13.0999
-13.0999
-13.7946
-13.7946
-11.1062
-11.1062
-2.92555
-2.92555
-9.45389
-9.45389
23.1456
23.1456
12.6902
12.6902
-3.3367
-3.3367
-5.19505
-5.19505
6.88927
6.88927
-6.28855
-6.28855
-7.11468
-7.11468
-10.605
-10.605
404.292
404.292
345.615
345.615
-3.41272
-3.41272
35.3395
35.3395
-3.36753
-3.36753
-1.08391
-1.08391
11.3094
11.3094
-8.18966
-8.18966
637.017
637.017
684.494
684.494
794.646
794.646
-3.36054
-3.36054
-8.87997
-8.87997
-2.80854
-2.80854
-7.78931
-7.78931
-7.37958
-7.37958
259.407
259.407
9.4334
9.4334
-7.79196
-7.79196
-3.41958
-3.41958
-9.87493
-9.87493
-6.90522
-6.90522
-7.7494
-7.7494
-3.10532
-3.10532
-3.91945
-3.91945
34.6129
34.6129
11.9431
11.9431
-5.15367
-5.15367
23.4158
23.4158
-2.94783
-2.94783
-11.517
-11.517
-6.91579
-6.91579
-7.76422
-7.76422
-1.65343
-1.65343
318.059
318.059
-1.85234
-1.85234
-3.57499
-3.57499
-3.31333
-3.31333
-2.58798
-2.58798
10.0263
10.0263
-7.46299
-7.46299
-2.8267
-2.8267
10.6072
10.6072
-6.35124
-6.35124
-7.49292
-7.49292
16.8556
16.8556
-5.84276
-5.84276
-12.1676
-12.1676
-2.91383
-2.91383
-4.49307
-4.49307
-9.27212
-9.27212
256.544
256.544
-14.639
-14.639
12.5883
12.5883
-15.5659
-15.5659
-3.5244
-3.5244
-13.2001
-13.2001
-12.5571
-12.5571
-11.6783
-11.6783
-15.2017
-15.2017
-19.0345
-19.0345
-4.75438
-4.75438
7.95939
7.95939
-4.31436
-4.31436
-15.1617
-15.1617
-8.12544
-8.12544
-7.33704
-7.33704
-12.0942
-12.0942
-3.30733
-3.30733
-7.68996
-7.68996
12.6731
12.6731
-10.9179
-10.9179
-6.89907
-6.89907
-3.06442
-3.06442
-13.4682
-13.4682
-1.16394
-1.16394
-5.02638
-5.02638
235.115
235.115
-2.91406
-2.91406
-3.45773
-3.45773
-10.2606
-10.2606
-3.76301
-3.76301
11.1468
11.1468
-5.91763
-5.91763
-8.19738
-8.19738
-10.8839
-10.8839
-13.3109
-13.3109
-3.21951
-3.21951
996.051
996.051
-3.12283
-3.12283
-4.84659
-4.84659
-3.40522
-3.40522
-7.10091
-7.10091
-5.3716
-5.3716
751.435
751.435
21.0621
21.0621
-3.45984
-3.45984
-3.66655
-3.66655
-6.87051
-6.87051
-7.786
-7.786
9.93545
9.93545
-7.54862
-7.54862
-8.95343
-8.95343
864.308
864.308
-3.57798
-3.57798
13.5819
13.5819
-0.521091
-0.521091
-7.14303
-7.14303
-2.29813
-2.29813
-15.6262
-15.6262
-6.34626
-6.34626
9.28198
9.28198
12.9855
12.9855
-3.01405
-3.01405
-12.6703
-12.6703
-12.8768
-12.8768
-3.3163
-3.3163
-3.59826
-3.59826
-16.8779
-16.8779
28.5467
28.5467
732.066
732.066
-16.8343
-16.8343
-14.8143
-14.8143
-15.9025
-15.9025
-3.54033
-3.54033
-9.48652
-9.48652
-7.58057
-7.58057
702.221
702.221
-14.1859
-14.1859
856.954
856.954
-12.3988
-12.3988
-7.65292
-7.65292
-12.7263
-12.7263
-6.52183
-6.52183
1.37502
1.37502
486.071
486.071
-2.98943
-2.98943
-5.91829
-5.91829