/*--------------------------------*- C++ -*----------------------------------*\
  =========                 |
  \\      /  F ield         | OpenFOAM: The Open Source CFD Toolbox
   \\    /   O peration     | Website:  https://openfoam.org
    \\  /    A nd           | Version:  8
     \\/     M anipulation  |
\*---------------------------------------------------------------------------*/
FoamFile
{
    version     2.0;
    format      ascii;
    class       surfaceScalarField;
    location    "0.65";
    object      phi;
}
// * * * * * * * * * * * * * * * * * * * * * * * * * * * * * * * * * * * * * //

dimensions      [0 3 -1 0 0 0 0];

internalField   nonuniform List<scalar> 
2805
(
-0.000129197
-3.3825e-05
0.000163022
0.000129118
-0.000258314
-0.00339593
0.000615894
0.00278003
-0.0018502
-0.00154573
-0.000212224
0.000341341
-0.00454573
0.00269553
-0.00279992
-0.00174581
-0.00462909
0.00182917
-0.00336601
-0.00126308
-0.00161166
0.00222755
-0.00417038
0.000804368
-0.00256638
-0.001604
0.000357678
-0.000521764
0.000164085
-0.00353287
0.000966494
-0.00231417
0.00243576
-0.000121588
0.000166405
-0.00248057
0.000688817
-0.000331138
-0.00301154
-0.000521329
-0.000134762
0.000100937
-0.00321704
0.0002055
0.00026326
-0.00011704
-0.00014622
0.00292467
0.00240841
-0.00533309
-0.000952592
0.00071101
0.000241582
-0.00244317
-0.000773878
-0.0025224
0.00544707
-0.00437738
0.00281107
0.00156631
-0.00298919
-0.00138818
0.00092202
-0.00111228
0.000190258
-0.00147273
0.00184139
-0.000368652
-0.000675154
0.00104445
-0.000369293
-0.000542168
-0.000410424
-0.00557468
0.00305228
-0.000286499
0.000480858
-0.000194359
6.41385e-05
0.000624678
-0.000609121
0.00153114
0.000239908
0.000471102
-0.00291317
-0.00266151
-0.00137819
-9.45407e-05
-0.00217842
0.00150327
-0.000478029
0.00168891
-0.00460208
0.000104207
0.000159054
0.00449997
0.000926215
-0.000684633
0.000624912
0.000197898
-0.00082281
-0.00161379
0.00233394
-0.000720153
0.000217027
-0.000209465
-7.56191e-06
0.000415547
0.00114559
-0.00156114
6.72932e-05
-0.000434572
0.000367278
-0.000184218
0.00013212
5.20982e-05
-0.000197894
-0.000969355
0.00116725
-0.000417557
-0.00270104
0.00510946
0.00122785
-0.00142574
-0.00203486
0.000206523
0.00182833
-0.00222078
8.22653e-05
0.00104046
0.000586611
0.000453847
0.00253267
0.000443993
-0.00297667
0.000118693
0.000807523
-0.00172585
0.00189225
0.000768147
-0.000649455
0.00212992
-0.00267511
0.000545189
-0.000212007
0.00143986
-0.000552735
0.00169833
0.00198696
-0.00122152
-0.000765441
0.00104034
-0.000800431
0.000227597
1.15904e-05
-0.000980945
0.000447539
-7.77065e-05
-0.000369832
0.000666156
-0.00239201
-4.85025e-05
0.000265472
0.000778975
0.000361308
-9.58366e-05
0.000298285
-2.40713e-05
-0.000274214
0.000730155
-0.00128289
-0.00023583
0.000597138
-0.001336
-0.000225135
0.000779738
0.000396256
-0.000885257
0.000489002
-0.00111889
-0.0018703
-0.000444742
-3.47895e-05
0.000479532
-5.95197e-05
-5.75204e-05
-0.000123478
0.00079154
0.000248798
-0.000525666
0.00106369
0.00137207
-0.000116925
0.000374843
7.26962e-05
0.00137681
0.000610142
-0.00273185
0.00161296
0.000299086
0.00353128
-0.00361359
8.23035e-05
0.000543795
-0.000168952
0.00409397
-0.00430597
-0.000863189
0.00159334
0.00132971
-0.000933452
0.0011201
0.00141257
0.000237807
6.04782e-05
-0.00397534
0.00335134
0.000624
0.000484275
-0.000468885
0.00158899
-0.00210497
-0.000626878
0.00371713
-0.000185849
-0.000987715
0.000414695
0.000573021
-0.00417295
0.000350616
0.00382233
0.00353584
0.000181295
-0.00281275
0.00325674
-0.0033145
-0.00190637
0.00104319
0.00327595
-0.00304835
-0.00159042
0.00066195
-0.000440498
-0.000221452
-0.000292594
-0.00104341
-8.4555e-05
2.70346e-05
-0.0011953
0.000153615
-0.00263419
0.0038628
-0.00145428
-0.00240852
-0.00157548
0.000207779
-0.000331256
-0.000686845
0.000682088
4.75671e-06
-1.41002e-05
-1.18588e-05
0.000751764
-0.00197328
0.000137803
0.00416431
-0.00430211
0.000278467
-0.000302539
0.000376519
-0.000612348
-3.85486e-05
-0.00018408
0.000543898
-0.000359819
-0.000907288
-0.000999086
-0.000821612
-0.000202041
0.000299206
-9.71651e-05
0.000217208
6.67185e-05
0.0034656
-0.00365145
0.00269774
-0.00279228
9.02999e-05
-0.00253347
-5.92757e-05
0.00117266
0.00141792
0.000299445
-0.000299445
-0.000157248
0.000157248
-0.0045216
0.00332629
-0.00036477
0.000180691
0.00367364
0.000160101
0.00157519
-0.00438794
0.00208169
0.00178111
-0.00028977
0.000254981
-0.000686845
-1.31717e-05
0.000291639
-0.0047882
0.00396659
-0.00182606
-0.000205353
0.00436966
0.000628344
5.37437e-05
-0.00216828
-0.00177232
0.000865034
-0.000383553
0.000458332
-7.47795e-05
-0.000791807
0.000351308
-0.000476255
-0.00146191
-0.000677254
-9.59107e-06
-0.000105141
0.000526946
-0.000421805
-0.00083651
0.00428457
-0.00448993
0.000225371
0.000402973
-0.00055878
-0.0010167
-0.00369
2.7311e-05
0.000453547
-0.00410567
0.00227961
-0.000566694
-0.000421021
-0.000692401
-0.00104812
0.00322038
-0.00373321
0.000512831
-0.0011611
-0.000359684
-1.01479e-05
0.000315039
0.000156063
-0.00432123
0.00285932
0.00416771
0.000250723
-0.00441843
-0.00267705
0.00283066
-0.000774813
-0.000169038
0.00094385
-0.000229232
0.00451381
-7.44538e-05
-0.000360118
6.80562e-05
-0.000277521
0.000355353
-0.000368524
0.000122803
0.00404183
-0.00416464
-0.00155787
-0.000609937
0.000961246
0.00341982
0.000253821
-0.0022765
-0.00110102
-0.000671298
-0.00204162
0.00385466
-0.0040839
-0.000677254
9.1315e-05
0.00316847
-0.00325978
-0.000428008
0.00364839
0.00396476
-0.00439277
0.00291283
0.000735552
-0.000351607
0.00256452
-0.00340103
0.00122222
-0.00349873
0.00429051
-0.00352771
0.0014861
4.15771e-05
0.000313776
0.00045174
0.000299206
-0.000687398
1.01449e-05
0.000132337
-0.00144717
-0.00111737
0.00256454
-0.000316196
0.00417086
0.00413315
0.000791214
-0.00325691
0.0048321
-0.000313391
-0.00230549
-0.000411945
-0.000200403
0.00405627
9.59791e-05
-0.00192541
-0.00230046
0.000853289
-0.00269436
-0.000326795
0.00349526
-0.00174388
0.000642855
0.000169184
-0.000672867
0.000503683
0.00222513
-0.00254133
0.00344973
-0.000536899
0.000109358
9.71651e-05
-0.0021838
0.000140452
0.00204335
0.00421548
0.00164794
-0.00197474
0.000458332
0.00170249
-0.00281986
-0.00309119
0.000785696
0.00207693
-0.00400234
-0.000687398
-2.18597e-06
-0.00267486
0.00392934
0.000361176
-0.00153062
0.0032331
0.000540175
-0.000498597
0.000123119
7.47795e-05
0.000282787
0.000806432
-0.00350079
0.000545221
-0.000177675
-0.00039751
0.000176326
-0.000470729
-0.00021667
-0.000800243
0.00302538
-0.00326869
-0.000734396
-0.00082347
-0.00214355
-0.000156916
-0.00155121
0.00311752
-0.00428876
0.00390422
0.000384535
-0.000336498
-0.00228476
0.00417731
-0.00200697
0.00126279
-0.00195519
0.000613539
-0.0011181
0.00417038
6.52131e-05
-0.00016105
0.000234146
-7.50921e-05
0.000119835
-0.000540857
0.00135208
0.000291883
0.00277141
0.000678324
-0.000394911
-0.000266606
0.000419195
0.00373541
-0.0041546
0.000278018
-0.00246182
-0.00027639
-0.000608867
-0.0025343
-0.000765586
0.00241353
0.000697899
0.00367858
-0.000143829
-0.000470729
0.00151727
0.000440338
-0.00124058
-0.000172288
-0.000158968
-0.00139212
-0.000351759
-0.000543898
7.31695e-05
-0.00320783
0.000923076
-0.000359424
0.000425387
-0.00243235
0.000621196
0.000882074
2.49124e-05
-0.000790499
-0.00238922
-0.000430635
7.91328e-05
0.000368475
0.000158471
-0.0023729
0.000229352
0.000203591
0.000336584
-0.00029211
-0.00254614
-0.00330444
0.00157866
-0.00310927
0.00120688
-0.00446379
0.0011996
-0.0037339
0.000469699
0.00320401
-0.00367371
0.000236927
-2.78085e-06
-0.00129256
0.00287122
0.00432342
-0.000726831
0.000596563
0.00203069
5.10012e-05
-0.00119283
0.00163316
0.0061883
-0.00143371
-0.0047546
-0.00140569
0.000401012
-0.000241123
-0.00200823
-0.00211594
0.00392974
0.000686409
0.00322083
-0.000449418
-0.00044512
0.000131403
0.000237072
0.00139807
-0.00278625
0.000345866
-0.000690096
0.00034423
0.00377373
0.00420511
-0.00100051
-0.00225911
0.000866988
0.00403976
0.00143451
-0.00219995
0.00532165
0.000866657
-0.0035284
0.000198615
-0.000399018
-0.00134979
0.0013747
-0.00269865
-0.000927896
-0.00118805
-0.00064397
-0.000548855
-0.00287747
-0.000327
-0.000616363
0.0071233
-0.00167622
0.000715949
-0.000512358
0.000282141
-0.00265504
-0.00263091
0.000238906
-0.002008
3.4724e-05
0.00236338
-0.000332696
0.00498811
-0.000488134
-0.000713313
0.000291508
0.00220931
-0.00263995
0.000663282
0.000261475
-0.000658986
-0.000215713
0.000422056
-0.000206342
-0.00277441
0.000766182
0.00378949
0.000533931
-0.000514688
0.00460865
-0.00125476
-9.50221e-05
-0.00266518
0.000119046
-0.00089996
-0.00390574
0.00144392
0.00387001
-0.00139138
0.00568959
0.0026037
0.00061713
-0.00123721
0.000593242
-0.00216848
0.00114294
-0.0024355
-0.000234901
0.0015436
-0.00251326
0.00251108
0.00344886
-0.0018359
1.01479e-05
-2.20067e-05
-0.00238304
-0.00277663
0.00630112
-0.00213075
0.0003305
-0.0023385
-0.00230041
-0.000279381
-0.000380879
0.00279048
0.00359034
-0.000977488
0.00212043
3.7565e-05
-0.00247123
0.00189764
-0.00257942
0.00666494
-0.00134329
0.00311438
-0.00260712
0.00040717
-0.00123733
-0.000931145
0.00355673
-0.000439211
0.0046249
-0.00187662
-0.000382484
-0.00239528
-0.000244778
-0.000119993
0.000309173
-0.000601283
0.000426804
0.000289144
0.00143438
0.000225371
-0.00417423
0.00147558
0.000271645
-0.000880978
0.000609333
-0.00257239
0.0030686
-0.00172031
0.000465543
0.00571321
0.000951732
-0.00162492
-0.00114949
-0.00179373
-0.00118533
-5.18864e-05
-0.00353793
0.00474481
0.000402463
-0.000678853
0.00248976
-0.00237071
0.00045655
-0.001485
0.00102845
4.26793e-05
-0.000150193
0.00309963
-0.000495931
-0.000337222
0.000999865
0.00549983
-0.00162982
0.00147433
-0.00237429
-0.000875565
-0.000530129
-0.000206186
0.00108826
0.00756393
-0.00187433
0.00303592
-0.00177313
-0.00273031
-0.000287634
0.00130155
0.00563153
-0.000926015
-0.00470551
-0.00178619
0.00120002
-0.000961174
0.000414019
-0.000129995
-0.000284024
-0.00272487
0.00336909
0.00397487
0.0032023
-0.00130466
-0.000469306
0.00059349
-0.000435019
-0.00190752
-0.000430987
-0.00157446
-0.000145844
-8.98452e-05
-0.000559325
-0.00319841
0.000727183
5.40367e-05
0.00622063
0.00116386
-0.00247196
0.000595337
0.00276309
0.0018542
0.000254797
-0.00123229
-0.00262509
0.000242045
0.00117989
0.00445164
-0.00289466
0.000594244
0.000408423
-0.000735423
0.00702171
-0.00239682
5.9955e-05
0.000341057
0.002961
0.000925818
-0.000499014
-0.00279124
-0.00231567
-0.000256729
-0.00105508
-0.000130245
-0.0018018
-0.000951966
0.00414063
-0.00107203
0.00650313
-0.000789925
0.00124025
-0.000553843
-0.000626181
0.00205383
0.0010458
-0.000250563
-0.000757391
0.000708889
-0.00201419
0.000389272
0.000591183
-0.0024987
-0.00283034
0.000435053
-0.00049082
-0.00129537
-0.00291236
-0.00274665
0.00514738
0.0025108
0.00312069
-0.00192068
0.000199024
-0.00271229
0.00373079
-0.00242924
-0.00122732
0.000411238
0.00195766
0.00557712
-0.00170313
0.00193741
-0.00208761
0.000392043
-0.000729265
-0.00230347
-0.00370205
0.000971739
0.00181604
-4.38386e-07
0.000131841
-0.000436878
-0.00257105
0.00347894
0.0057443
-0.00237521
0.000668727
0.000834194
-0.00437212
-0.00250878
0.00013807
0.00320679
-0.000443705
0.00705615
-0.00083552
0.000551296
-0.00151247
0.000449407
-0.000728788
-0.000286809
-0.00297487
-0.000810878
-0.00270882
-8.24281e-05
-0.00296554
0.00334748
-0.000932049
-0.00229262
-0.00223609
0.00524322
-0.000791582
-0.00226673
0.000501705
-0.000789338
-0.000680989
-0.000217635
0.000442649
0.000722135
-0.00068457
-9.03822e-05
0.000897905
0.00213477
-0.00120599
0.000150905
-0.00107752
0.00403852
-0.00158253
-0.000431662
0.00626623
0.000345837
0.000445704
0.000437249
0.000488569
-0.000920603
-0.00182605
-0.00134725
-0.00131183
0.00336566
0.00462463
-0.00211382
0.00665331
-0.00150593
-0.000995641
0.000995202
-5.42746e-05
0.000834012
-0.000151876
0.000331121
-0.000957302
0.00405066
-0.002093
-0.000786377
0.000580191
-0.00200434
-0.000670768
-0.000953208
-0.00154549
-0.000594975
-0.00187698
0.00212999
-0.00410046
0.0011881
-0.00223981
0.00590417
-0.000327056
0.00313616
-0.00132012
0.000802387
0.000224657
0.00107364
9.36121e-05
-0.000547492
0.000679334
0.000330868
0.00224942
0.00416571
0.00113184
-0.00312872
0.00401287
-0.0012362
-0.000233718
-0.000838101
0.000453876
0.00581779
-0.000398144
0.00240286
0.00269245
-0.00311422
0.000139351
0.000689802
-0.000779647
-0.00212467
-0.000840874
-6.54202e-05
0.000221483
0.000957872
0.00109478
-0.00153166
0.000235748
-0.00169003
0.00535754
-0.00201006
-0.00331549
0.00101202
-0.00152644
-0.00319665
-9.20014e-05
0.00153186
0.00084363
-0.0021149
2.72952e-05
0.00133171
0.00103167
0.000559009
-0.000845819
-0.000379291
0.00378598
-0.00165121
0.00511259
0.000271222
2.06603e-05
0.000981635
0.000927625
-0.000417686
-0.00304527
-0.00105681
0.000526685
-0.00277926
0.00157911
0.0024594
-0.000600232
8.55442e-05
-0.00197683
-0.00106797
-0.000138022
-0.000864778
-0.00113956
0.00610195
0.000164282
-0.000518839
-0.00142765
0.000558161
-0.000808724
-0.0012549
1.87002e-05
-0.0011902
0.00252191
0.00167216
-5.99724e-05
0.000380284
-0.000947224
-0.000280101
0.00385161
0.00102075
-0.00256624
-0.00100813
0.000997101
-0.000559852
0.00109431
0.000437551
-0.000993239
0.00032247
0.000513906
-0.0011949
-0.000230329
-0.00210118
0.00428498
-0.00203556
-0.000171435
-0.00117582
0.000168291
-0.000582932
0.000807589
-0.00229475
-0.00096211
0.000873283
-7.08968e-05
-0.00315154
0.000915446
0.00401387
-0.00188388
-0.000553131
0.00124642
0.00577489
0.000494075
0.00269375
4.59974e-05
-0.00506334
0.00297034
-0.000443397
-0.00327569
-0.0035578
0.000429083
0.00550274
0.000315048
0.00374154
-0.00104909
-0.00341803
0.00425223
-0.00226389
-2.8453e-06
0.00227492
-0.00207837
0.00227739
-0.00266048
0.00488855
-0.000722846
-0.00341845
-0.00113838
-0.000361449
-0.00250558
-0.000691065
-0.0012036
0.003663
-0.000170628
0.00209033
0.00110903
-0.000661575
-0.000131951
0.000975581
5.23224e-06
0.000572587
-0.000970731
-0.00334646
-0.000155889
0.00358042
-0.00190827
-0.00213952
0.00522169
-0.000109103
0.00566702
0.00393136
-7.97477e-05
0.000637118
-0.000870836
0.000308398
0.00010284
-0.00232386
-0.000273232
-0.00169787
-0.00295768
0.000717867
-7.1899e-05
0.000999524
0.000418766
-3.84824e-05
-0.00140194
-0.000129721
-0.00137465
-0.00155215
-0.00101408
-0.00120606
-0.0015732
0.00154486
-0.00102491
-0.00149668
-0.0015486
0.00031396
-0.000136937
-0.000177023
0.000865923
-0.00128361
0.000675638
-0.00154039
-0.000457824
-0.00145833
0.00412552
-0.00143177
0.00368496
-0.00200397
2.71397e-05
0.000347869
0.00070679
-0.000858665
0.00424641
0.00269458
-0.000419663
0.000702543
-0.000932872
-0.00061616
0.00186258
-0.00509076
0.00320688
0.000479842
-0.000100445
0.00108208
-0.00212043
-0.00403919
0.000763501
0.00307644
-0.000328972
0.00518247
0.000592418
0.00449885
0.000903682
-0.00361011
0.000107445
0.000206515
0.00337434
-0.00128401
-0.00294708
-0.000471371
0.00140613
0.00225687
-0.00200682
0.000338445
-0.000510733
-7.28573e-05
-0.00373107
0.00143632
-0.000171606
0.000125015
-0.000486464
-0.00204223
2.20067e-05
5.7126e-05
-0.000401344
0.000838896
0.000754657
0.000242443
0.000680002
-0.0011234
-0.00363815
0.00116003
-0.000314547
0.000151372
0.000163175
0.00261484
-0.00275821
0.00146608
-0.00306987
0.00208433
0.00149712
-0.0025112
0.000789968
0.000899079
-0.00187448
-0.00147197
-0.000168293
-0.00171695
-0.000356108
0.00207306
-0.00306232
-0.000291508
-0.000143511
0.00439843
0.0012686
8.65326e-05
0.00507337
-0.000290729
0.00206137
-0.000516516
0.000205926
-0.00362396
-0.0013086
0.00130779
-0.00146801
0.000160226
-0.0012334
-0.00107326
0.00165345
0.000680736
-3.28715e-05
-0.000211906
-0.00223395
0.00140196
-0.000948089
-0.00342308
0.00054951
-0.00262788
0.000750796
-0.00102403
0.00164171
-0.000513402
0.000861271
0.00370963
-0.000633196
0.00265609
0.00159032
1.28299e-05
0.000662808
0.00463241
-0.00142553
-0.00347283
0.00133331
0.00320064
0.000641592
3.77417e-05
-0.00338972
-0.000220384
0.000968411
0.00111337
-0.00124309
0.00499084
0.00242562
-0.000473634
-0.00360862
0.000672379
0.000745723
-0.000916351
-6.48171e-05
-0.000960097
0.00131314
0.00265484
0.00106371
-0.000895416
-0.00199442
-0.00476135
0.00264092
0.00139588
-0.00136874
-0.00067317
0.00064663
0.00390062
-0.00164374
2.12359e-05
-0.0038611
0.000925003
0.00168983
-0.000182076
-0.000170243
0.0020001
0.0017433
-0.0037434
-0.00267702
0.00458696
-0.000902007
-0.000500247
0.00195528
-0.000489207
-0.00159324
0.0019241
0.000796094
-0.0009677
-4.64714e-05
-0.00260757
-0.0020365
-0.00231041
-0.00132774
0.00392468
0.000894864
-0.000889631
0.000887928
-0.0012169
-3.15782e-05
0.00171695
-0.00163141
0.00481367
-0.000314825
-0.000845103
0.000931635
-0.00440341
0.00189221
1.63123e-05
0.00088737
0.00143877
0.000530151
-0.00293867
-0.00112687
0.00191684
-0.00137142
-0.00192462
-8.21998e-05
0.00067912
-0.00216959
-0.000900285
-0.00023547
0.00251532
-0.000654618
-0.0021036
-0.00378238
1.61685e-05
-0.00320528
0.00116305
0.000852805
-0.0010211
0.00468301
0.000390362
0.00378071
-0.000580068
-0.000194108
0.00183582
0.00314751
-0.000112942
-0.00203221
-0.0023712
0.0008363
-0.00112703
0.000494604
-0.000494604
-0.00219534
0.00163141
-0.00113733
-0.00446005
0.00303452
0.0019998
0.00042582
0.00018726
0.00224143
0.00165919
-0.00181912
0.00149573
-0.00401136
0.0017774
0.00294322
-0.00137342
-0.00125199
-0.00217109
-0.000554862
8.12285e-05
-0.000120257
-0.00187198
-0.00365557
4.69535e-05
0.00111456
0.00381496
0.00117588
4.07441e-05
0.000858335
0.000903123
-0.00097598
-0.00268683
-0.00197109
-0.00387596
0.00121541
0.000186556
-0.00193778
0.00261016
-0.00275578
-0.00110532
0.000928114
0.00151059
0.000376773
0.0016783
-0.000187728
0.00391167
-0.00126786
-0.00166653
0.0029344
0.00210983
0.00181486
0.000142146
-0.000114894
0.00125405
-5.7126e-05
-5.97991e-05
0.00157521
-0.00212661
0.00197072
0.00436818
-0.00211915
0.000115618
-0.00306212
0.00326805
-0.000571083
0.00200985
-0.00408351
-0.00271667
-0.00342158
-0.00300388
0.000208755
0.00230656
0.000905881
-0.00108796
0.000143829
0.000194616
0.00222392
-0.00167441
0.00122367
-0.00120243
-1.94177e-05
0.00107643
-0.00124667
-0.00367101
0.00163451
-2.09413e-05
-0.00292864
0.000934222
-0.00140592
0.00142209
-5.52185e-07
0.00420532
-2.61484e-05
0.000706884
0.00207053
0.00107698
0.00126474
-0.00140995
4.12038e-05
2.24694e-05
0.00065665
0.00368051
-0.000645992
-0.00149214
0.00310044
6.02189e-05
-0.000140473
0.00376294
-0.00376294
0.000832186
-0.00170883
-0.00207355
0.000103698
0.00249635
0.00328571
0.000922603
-0.00103555
1.34917e-05
-0.00176559
-0.00125914
0.00275486
-6.63139e-05
0.000254398
-0.000188084
0.000973177
-0.00120865
0.000272384
-0.000115218
-0.00388719
0.00206807
0.00202361
-0.00189361
-0.000646383
0.00215698
-0.00218288
0.00384206
-0.00311267
-0.000763285
0.000557987
-0.0046091
0.0022379
0.00395379
-0.00101058
-0.00231199
-0.00387992
0.000965058
-0.00108531
0.00385497
-9.20367e-05
-0.000153851
0.000574352
0.00113733
-0.000298436
-0.003577
0.00104743
-0.00421799
-0.000976743
0.00135352
-0.00333959
0.00146761
-0.00100037
0.00211493
0.00136347
0.00468276
-0.000771095
-8.08272e-05
-0.002606
0.000943624
0.000445342
-0.00416027
0.00204112
5.3039e-05
-1.52973e-05
0.000964238
-0.00115197
0.00488414
-0.000515954
0.00202305
-0.00116976
0.000312349
0.000615765
-0.0022717
-0.00181182
0.000252837
-0.0017124
0.00297713
0.00198045
0.00111999
0.000969
0.00101615
-0.00113104
0.00401496
0.000190363
-5.33774e-05
0.00305743
-0.00169365
-0.000202508
-0.00344292
0.000380798
-0.00319251
0.00254652
-0.000245526
-0.00275836
0.000944613
-0.00170508
-0.00112444
-0.00179011
0.00176917
0.00248867
0.000797041
-0.000338213
0.00283457
-0.000574738
-0.00284684
0.00104247
0.000323122
-0.000162896
-0.00276504
0.000157465
0.00177092
0.000354859
-0.00434525
-0.000123718
0.000617119
0.00140649
0.00367219
-7.04873e-05
0.00246027
0.0013818
0.00242807
-0.0025089
-0.00218103
0.00152643
0.00181876
-0.000657692
0.00076139
0.0014599
-0.00192236
0.00411304
-0.00302704
0.00126145
-0.00212133
0.00122183
-0.00124125
0.000120295
0.000202827
-0.000947243
0.00199467
0.000695824
-0.00374488
0.00185127
-0.00333301
-0.000243992
-2.48375e-05
0.00111453
-0.001255
-0.0040963
0.000956059
0.00349901
-0.0014414
0.00280487
0.00129663
-0.00125543
-0.00243472
0.000760309
9.4201e-05
0.00042015
-6.91664e-05
0.00106861
-0.00118383
-0.00292482
-0.00129316
0.00267903
-0.00107729
-0.00280263
-0.000734758
-2.22401e-05
6.82374e-05
0.000324822
-9.41198e-05
-0.00285153
0.000520016
0.00031217
0.00113578
0.00141416
-0.00289521
0.000119794
0.00153573
-0.00198852
0.00293214
-0.00155943
0.00160142
-0.00333309
-0.00170376
0.000169956
0.00288747
0.00107348
-0.00122734
0.00198146
0.000565052
0.00310145
-0.00473664
0.00045925
-0.00172876
0.000236612
-0.00129045
0.0017358
-0.001513
0.00255547
0.000833232
-0.000873553
0.00300452
-0.00147592
-0.00392413
-0.000507982
0.0022789
-0.00282694
0.00170251
-0.000219351
0.00442518
-0.000752998
-0.000794317
0.000235978
-6.24301e-05
-0.00272948
0.00103582
-0.000380191
0.00219896
-7.84817e-05
0.000294525
0.000674475
-0.00337313
0.00166805
0.00105591
0.00048167
0.00573445
-0.0016214
-0.00187088
-0.00184816
-0.00249709
0.000298436
0.000408448
-0.00420722
0.00228485
0.00415537
-0.000656364
0.00242468
0.00116809
-0.000981537
-0.00366119
-0.00043511
0.00250442
0.000174608
-0.000146828
-0.000363905
-0.00134947
-0.00116719
0.00251666
-0.001154
0.00253579
0.00111972
-0.00124344
-0.00368691
-0.00152187
0.00339562
-0.00301482
0.000456436
0.000957725
0.00253838
-0.00471941
0.000981538
-0.00086592
-0.00116809
0.00131024
-0.00130044
0.00283617
-0.00495435
-0.00146803
-0.00465079
-0.000708526
0.00140435
0.0039172
-0.00135482
0.00181407
0.00103744
0.000422464
-0.000866472
0.00086592
0.000720614
0.00238084
-0.00425255
0.00576652
-0.00151398
-0.000679192
0.00100401
-0.00228815
0.0028532
0.000577283
-0.00308618
0.00360809
0.00102727
0.000498912
-0.00335044
-0.00171695
0.00158493
0.00125503
0.00134304
-0.00124884
0.00498145
0.000651843
0.00235268
-0.000585642
0.00176495
-0.00375848
0.00205472
0.000101792
0.0012442
-0.00126903
0.00119843
-0.00297913
-0.00175752
0.00253397
-0.00085298
-6.41105e-05
-0.00166884
0.000236939
-0.00357003
-0.00304046
0.00148104
0.00184806
0.0011249
0.0028508
-1.08046e-05
0.00117893
-0.00127305
-0.000746018
0.00142049
0.000631043
-0.00147363
0.000389763
-0.00152733
0.00130798
-0.00251371
0.00299538
0.00085298
-0.000906358
-0.000500084
0.00292476
-0.000397095
-0.00131024
0.00137046
-0.000168638
0.000115212
5.34259e-05
-0.00547621
-4.8402e-05
-0.00137241
-0.00281057
-0.00190883
-0.0013989
-0.0015316
0.000276168
0.0018209
-0.000261157
-0.00366298
0.000129618
-9.82423e-06
-0.00448821
0.0008013
0.00152473
0.000906358
-0.000976845
0.00233608
0.000168638
-0.000271222
0.000102584
0.000201207
0.000854708
-0.00492332
0.00116064
-0.00123913
-0.000699641
-0.00129499
0.000834055
0.00170174
0.000358243
0.00160556
-0.00223329
-0.00449798
-0.000456375
-0.000367887
0.000204992
0.000226488
-0.00258727
-0.0031135
-0.000523321
-0.00336893
0.00184707
0.00125652
-0.00532105
0.00230623
0.000536284
0.00338092
-0.000408448
0.000720618
-0.0028983
0.00415333
0.00181521
0.00103799
0.000631113
0.00297697
0.000976845
-0.00104601
0.000853041
0.00412841
0.00419605
-0.000210423
0.00116795
-0.00137046
-0.00422797
0.00255913
0.000165039
-0.000197911
0.00298379
-0.00400261
0.00653658
0.00162341
0.000141537
-0.00383119
-0.00275088
0.00128285
-0.00625549
0.00168158
-0.000556674
-0.00119311
-0.00345769
-0.00672974
0.0085778
-2.96381e-07
0.00285109
9.74159e-05
-0.00016373
-8.27943e-05
0.00286298
-0.00477181
-0.00849344
0.00912449
0.00208325
-0.00132294
-0.000470442
0.00149771
-0.00131421
0.000699837
3.0799e-05
-0.00376365
0.00229002
9.70811e-05
0.00136355
-0.00126176
-5.7126e-05
-0.00346406
0.00287842
0.00292447
-0.0096236
0.0092265
0.000114321
-0.00126984
0.00135046
0.00293139
0.00104601
-0.00110844
9.45189e-05
-0.00288462
0.00522071
-0.00193933
-0.00151701
0.00026817
-0.00136499
-0.00322636
-0.00154545
-0.00120451
0.00123089
0.000470847
-0.00485608
0.00221786
0.000607333
0.00137735
-0.00361064
-0.00284487
-0.00263134
-0.000992041
0.00184675
0.000428452
-0.00303075
0.00165834
-0.00988865
0.00918901
-0.00620932
0.001286
0.00423396
-0.000143511
-0.00451975
0.000125792
-0.00184901
-0.000193161
0.00131931
-0.00443281
0.000373632
0.00127079
-0.00128159
0.000253829
-0.000133534
0.000359819
-0.00019478
-0.00666569
0.00142901
-0.00401628
8.43571e-05
0.000116892
0.00126871
0.00329438
-0.00291283
-0.000381554
-0.00188787
0.00224611
-0.00049911
0.000674216
-0.00124084
0.00124079
0.00295526
-2.26559e-06
0.000831204
0.000774352
0.00540157
-0.00592489
0.00127648
-0.00132488
2.14693e-06
0.00298165
-0.00118368
0.00421776
0.00121342
4.30991e-05
0.00232892
-0.00407665
0.00581995
0.000990586
-0.00482177
0.00325997
-0.00480542
-0.000720618
0.00111038
-0.00218162
0.00110844
-0.00117255
-0.00313429
0.00417228
-0.0033666
0.00205239
-0.00520963
-0.00104586
0.00285324
0.00243999
-0.00428901
-0.000662146
-0.00269697
0.000253852
-0.000156436
-0.00630255
0.00343592
-0.00427593
0.00291094
-0.00107659
0.00586154
-0.00355531
-0.00963769
0.00973477
-0.000255869
-0.00289529
0.00581976
5.59412e-05
-0.00249317
0.00109427
0.00270981
-0.00489143
3.73536e-05
-0.00344222
-0.000286834
0.000757682
-0.00380081
0.0025963
0.00109971
0.000111572
0.00232541
-0.00148931
0.000227553
-0.00081692
0.00785592
-0.00492452
0.0036678
-0.00122781
-0.00784097
0.00783958
-0.00207306
-0.00101596
0.00289057
-0.00558755
-0.0015792
-0.000448686
-0.0074448
0.00292505
-0.00113763
-0.00122114
0.00351371
0.000217678
-0.00507376
-0.00121033
0.00345953
-0.0061588
0.00392221
-0.000396166
0.00135385
-0.00125933
0.000954296
-0.0027482
0.00147836
-0.00085298
4.24917e-05
-0.000243735
-0.00476518
0.00353737
-0.00711864
0.000452948
-0.00200086
-7.52735e-05
-0.0046041
-0.00953249
0.0108012
-0.000889871
-0.00183446
0.00053947
0.00434874
-0.00592794
-0.00338703
0.00231044
-0.00125535
0.00117255
-0.000168638
-0.00149595
0.0022703
8.66497e-05
-0.000250379
-0.000416439
0.0003508
0.000226815
0.00399095
-0.00302681
0.00184313
-0.00185935
0.00481462
0.00300058
-0.0064428
-0.000974419
-0.0081645
-0.00766468
0.00410938
-0.00137046
-0.00108986
-0.000790736
0.000217349
-0.000130699
0.00231293
0.00193102
0.00320846
-0.0149912
0.0156654
0.00635406
-0.00291814
-0.0156654
0.0178833
-0.00147954
-0.00482301
-0.00111038
0.00153883
-0.000142934
-0.000263888
0.000130354
-0.0178833
0.0221172
-0.00224961
0.000926667
0.00019478
-0.000138838
-0.00258697
-0.00347186
0.00632511
-0.000373632
0.00016321
-0.0221172
0.022243
0.00498751
-0.00698837
-0.022243
0.0220499
7.22563e-05
-0.000194616
3.79266e-05
0.00015669
-0.0220499
0.0221342
0.000202288
-0.000188181
4.13538e-05
-0.000940428
0.00436601
-0.000828639
-0.0221342
0.0216351
0.00513128
-0.00120908
0.00197036
0.000358559
-0.0065533
0.00487542
-0.00498974
0.00385212
0.0023479
-0.00385017
0.0029603
-0.00413746
-0.00370351
0.00341527
-0.00372052
0.000305248
-0.00717292
0.00101412
0.0149912
-0.0142335
0.00337928
-0.00439524
-5.88965e-05
0.00288821
-0.0074923
0.0014241
-0.00119654
-0.00473964
0.00292465
0.00121267
6.09129e-05
-0.0216351
0.020973
-0.00122712
0.000474384
-0.00171523
-0.00671997
-0.00955211
0.0118775
-0.00355459
0.00142954
0.00575478
-0.00834175
-0.00896047
0.000164768
-0.00302783
0.00205341
0.00467529
-0.00296389
-0.0017114
0.00482246
-0.0052389
0.00132215
-0.00132442
-0.00123359
-0.00336645
0.00257571
-0.000717382
-0.00493554
-0.00322896
0.0142335
-0.0144773
0.00602118
-0.0019118
0.000294318
0.0045203
0.0144773
-0.0110177
0.00207925
-0.00863255
-0.00115534
-0.00121799
-0.000623729
-0.00160733
0.00038619
0.0027434
-0.000900267
-0.020973
0.0205243
-0.000470888
0.00264962
0.00222579
0.00428527
0.0110177
-0.00750401
-0.00578859
0.00104896
0.00124909
-0.00054312
-0.00863905
0.0048121
-2.72961e-06
0.00496255
-0.00251231
0.00130198
-0.00477447
-0.00040615
9.27434e-05
-0.000235677
0.00165353
0.000185956
-9.32122e-05
-0.00103394
0.00175715
-0.00541305
0.00399382
0.0052389
-0.00617933
-0.00316688
0.00637535
0.000138838
-7.79255e-05
-0.00288784
0.000976036
0.00665711
-0.0102117
5.52566e-05
-0.00153883
0.00188963
0.000433747
-0.000322175
-0.00231191
-0.00440806
-0.00113295
-0.00117576
-0.000118786
-0.00147017
0.000273624
-0.00108398
0.00750401
-0.00557299
0.000384802
-0.00934528
0.00219925
7.10506e-05
0.00118583
-0.0059603
0.00210605
0.00270605
-0.00168465
-0.00183888
0.00315822
0.00255781
-0.00128288
0.00135514
-0.0205243
0.0207266
-0.00554087
0.00433184
-0.0011981
0.00136287
-0.000710238
0.00567279
-0.000204562
8.57766e-05
-0.00294167
0.00222429
-0.00016321
0.000104313
0.00196928
-0.0106083
-0.00322223
-0.00271852
0.00181826
-0.00824775
0.00617933
-0.00741292
0.00411375
-0.00595263
0.00133488
-0.00106125
0.00557299
-0.00414345
0.00381006
0.00428193
-0.00184655
-0.000665115
-0.00983147
0.0121794
-0.00148607
0.0024621
-0.000365962
0.000179155
-0.00018898
-0.000194616
-0.00224179
0.00652706
0.0074834
-0.0128965
0.00761723
-0.0131581
0.00235608
-0.00282697
0.00121999
7.79255e-05
-2.26689e-05
-0.00399382
0.00337009
-0.00315183
0.00748367
-0.0151617
0.0119395
-0.00337009
0.00282697
0.00414345
-0.0023863
0.00334545
-0.000420792
-7.42086e-05
-0.00235608
0.00194993
-0.00737599
0.000136781
0.00721192
-0.00474981
0.0133227
-0.0151693
0.000382281
-0.00146626
0.00252096
-0.0027283
-0.00299111
0.00250772
-0.000854187
-0.0207266
0.0219757
0.00125929
0.00204605
-0.0052389
0.00741292
-0.00909756
7.99837e-05
0.00147378
-0.00183895
-0.00121865
-0.00109993
0.0020266
-0.00125584
0.000194588
-0.00430211
0.00811217
-0.00229897
0.00114363
-0.00663347
0.00785346
-0.00209779
0.000997863
-0.000873561
0.00413355
0.0023863
-0.00160506
-0.000781243
0.000542515
-0.00167546
-0.000996984
0.000181648
-6.73272e-05
-0.000104313
3.01045e-05
-0.000923745
0.000850193
0.0138642
-0.0126049
-0.0231755
0.0219569
-0.0216064
0.0186153
-0.00188963
0.00196068
0.00121799
-0.00122072
-0.00130506
-0.00229667
0.00129968
-0.00245012
0.00159593
-0.00920811
0.0117291
-0.000678832
-0.000996633
0.0222498
-0.0240887
-0.00194993
0.00158397
0.00222495
-0.00121799
3.07201e-05
0.00820042
-0.0164482
0.00111002
-0.000973237
-0.0102885
0.00553872
-0.00185459
-0.0101779
0.0133361
-0.000631863
-0.0195066
0.0121306