/*--------------------------------*- C++ -*----------------------------------*\
  =========                 |
  \\      /  F ield         | OpenFOAM: The Open Source CFD Toolbox
   \\    /   O peration     | Website:  https://openfoam.org
    \\  /    A nd           | Version:  8
     \\/     M anipulation  |
\*---------------------------------------------------------------------------*/
FoamFile
{
    version     2.0;
    format      ascii;
    class       volVectorField;
    location    "0.65";
    object      U;
}
// * * * * * * * * * * * * * * * * * * * * * * * * * * * * * * * * * * * * * //

dimensions      [0 1 -1 0 0 0 0];

internalField   nonuniform List<vector> 
1924
(
(0.0662378 -0.0299967 2.14618e-17)
(0.0173568 -0.0660838 2.13658e-17)
(1.56556 -0.555306 3.80393e-19)
(1.39537 -0.696558 8.66943e-20)
(0.237182 -0.0498648 1.79077e-17)
(1.51252 -0.905861 8.86264e-19)
(1.21994 -1.02538 1.67211e-18)
(1.13055 -1.2485 5.82274e-18)
(0.748012 -1.3099 8.79128e-18)
(1.44479 -0.401558 1.16065e-18)
(0.612661 -1.40078 1.07303e-17)
(0.453112 -1.41728 1.0849e-17)
(0.231944 -0.0792783 4.10187e-18)
(0.415208 -1.45314 1.07979e-17)
(-0.175948 -1.13632 1.16473e-17)
(-0.206226 -1.12152 1.1415e-17)
(0.265206 -0.098416 5.05894e-18)
(0.481553 -1.46359 1.11816e-17)
(0.0726583 -0.0605553 2.15465e-17)
(0.712948 -1.53137 1.26552e-17)
(0.0801568 0.0167345 4.16854e-18)
(2.60855 -0.529198 1.58322e-18)
(0.371558 -0.296843 1.01494e-17)
(0.745121 -1.6063 9.76068e-18)
(2.59455 -0.658568 1.74901e-19)
(1.83842 -0.590269 4.03694e-18)
(1.57176 -0.632108 4.04014e-18)
(0.604067 -0.160082 1.54365e-17)
(0.950165 0.149956 1.42466e-17)
(0.232548 0.481261 1.24555e-17)
(0.390697 -0.292952 7.68272e-18)
(2.43296 -0.645722 -1.88104e-19)
(-0.0537728 0.255212 2.18936e-17)
(0.319571 -0.207207 4.04185e-18)
(0.819438 -0.166651 1.36204e-17)
(0.29852 -0.0152061 9.74591e-18)
(2.37628 -0.459604 5.56118e-19)
(1.18892 -0.0632089 1.0583e-17)
(0.0336803 0.842605 2.03202e-17)
(0.369922 -0.292637 6.44887e-18)
(2.23823 -0.443987 9.82022e-19)
(0.119187 0.0141717 3.25171e-18)
(2.20017 -0.576215 1.6576e-18)
(0.419158 -0.241864 3.17367e-18)
(0.401874 -0.121136 1.25892e-17)
(1.18798 0.475154 1.52463e-17)
(0.0702293 -0.117388 2.14265e-17)
(0.951038 -0.177189 2.69765e-18)
(0.181513 0.221851 2.38141e-19)
(0.0163482 0.0489672 2.41982e-18)
(0.599125 -0.197327 9.21962e-19)
(0.18368 -0.0388274 4.55595e-18)
(2.60738 -0.535009 1.57451e-18)
(0.654321 -0.128114 -3.27672e-18)
(1.20808 -0.160763 1.30522e-17)
(1.19283 -0.322072 3.27902e-18)
(0.0613293 -0.0898351 2.17929e-17)
(0.7397 -0.182362 1.08675e-17)
(0.645883 -0.339454 1.40205e-17)
(0.385847 -1.2175 1.4296e-17)
(0.445055 -0.288209 1.17852e-18)
(-0.0639354 -0.965916 1.15283e-17)
(0.431148 -0.181581 1.36699e-18)
(0.753499 1.35087 2.28597e-17)
(0.809886 -0.442515 5.57376e-18)
(1.00768 -0.299527 1.20443e-18)
(0.440522 -0.870656 1.31579e-17)
(0.371666 0.088623 9.06364e-18)
(1.46524 0.16351 1.14535e-17)
(0.529034 -0.148587 1.24576e-18)
(0.249437 -0.0286968 1.02643e-17)
(-0.0151522 -1.0288 1.08061e-17)
(0.290207 1.06428 2.01272e-17)
(0.297965 0.256165 5.82168e-18)
(0.138064 0.119379 2.56119e-18)
(0.109855 -0.1983 1.00245e-17)
(0.850786 -0.361669 8.00282e-19)
(0.275026 -0.0058152 1.37858e-18)
(0.850462 -0.0424616 9.33641e-19)
(0.460075 -0.249706 1.46309e-18)
(0.112041 -0.397398 1.23391e-18)
(1.08321 -0.732863 7.28548e-18)
(0.347995 0.0755778 2.91896e-18)
(0.0664404 -0.0240972 5.97414e-18)
(0.0990075 0.091629 1.99699e-17)
(0.472488 -0.0546007 8.71538e-18)
(0.799081 -0.345357 1.04999e-17)
(-0.0333969 -1.11579 1.17945e-17)
(0.0758912 0.100888 9.54792e-19)
(0.197812 -0.0611213 9.11186e-18)
(0.224218 -0.797889 1.39975e-17)
(0.723808 -0.875455 1.01028e-17)
(1.78678 0.302484 1.2374e-17)
(2.21269 -0.0409077 5.70108e-18)
(0.255602 -0.0839975 9.45959e-18)
(1.70558 -0.872315 9.91442e-17)
(0.875333 -0.468937 4.49994e-19)
(0.16435 -0.591122 4.92867e-18)
(0.258556 -1.1162 1.42024e-17)
(0.029008 -0.171723 1.09568e-17)
(1.92847 -0.473579 2.31116e-19)
(0.205474 -0.0800837 7.99725e-18)
(0.173585 -1.01828 1.2375e-17)
(0.443159 -0.935966 1.45123e-17)
(2.48399 -0.057703 3.93393e-18)
(0.311223 -0.269343 1.61067e-18)
(2.24006 -0.29077 8.77412e-19)
(2.17716 -0.0736043 5.5609e-18)
(0.733687 -1.31687 1.04165e-17)
(2.26889 0.0436749 4.93888e-18)
(0.752741 -0.602128 8.13055e-20)
(1.94583 0.00700893 4.50548e-18)
(0.771571 -0.103102 1.46904e-17)
(0.417464 0.137307 7.13177e-18)
(0.763151 -0.136863 9.80895e-19)
(0.00129578 -0.0235536 5.7579e-18)
(1.85043 -0.62299 9.29375e-20)
(-0.232533 -1.185 1.05697e-17)
(1.4615 -0.239253 9.17027e-18)
(0.719235 -0.282506 8.03099e-19)
(0.116708 0.0899873 1.99908e-17)
(0.249139 0.00407209 -4.53399e-19)
(0.0763383 0.0715381 1.97397e-18)
(0.0502637 -0.0217917 7.01587e-18)
(0.315555 -0.893938 1.17236e-17)
(2.61845 -0.0892817 1.97284e-18)
(0.231014 -0.18183 9.08885e-18)
(0.254591 -0.108537 8.11159e-19)
(2.25622 0.00479855 2.62141e-18)
(0.20607 -0.05049 -5.6294e-19)
(0.618187 -0.624716 8.2648e-20)
(2.18855 -0.451936 6.8418e-19)
(0.154836 -0.248305 1.28148e-17)
(0.42906 0.106801 4.09513e-18)
(0.290996 -0.0531679 7.35417e-18)
(2.59065 -0.122653 1.31318e-18)
(1.65633 -0.168083 3.68808e-18)
(1.98174 -0.160275 1.8813e-18)
(0.845681 -1.68705 1.16979e-17)
(0.961425 -0.144369 1.25094e-17)
(1.04166 -0.3029 3.03159e-18)
(0.186614 -0.750392 1.20341e-17)
(-0.0334077 -0.230989 1.3867e-17)
(-0.101211 0.169076 1.29928e-17)
(1.97288 -0.806635 5.6958e-19)
(0.176997 -0.057224 -9.50584e-19)
(2.43724 -0.068181 4.30027e-18)
(0.108224 -0.0613698 1.06913e-17)
(1.07506 -1.49898 6.0766e-18)
(1.44344 -0.539812 1.24955e-17)
(0.128927 -0.0189767 2.39667e-18)
(0.213452 -0.000452079 3.09839e-19)
(0.14693 -0.210188 8.15055e-18)
(2.3073 -0.617866 2.75306e-18)
(1.70732 -0.966248 5.37625e-18)
(2.67781 -0.0654591 5.31461e-20)
(0.238362 0.0337584 -1.41209e-18)
(1.70359 -0.315215 1.62572e-18)
(0.534377 -0.791576 1.8427e-19)
(-0.118143 -0.244281 5.95823e-18)
(0.495447 0.290881 8.06097e-18)
(0.1919 -0.302018 1.06317e-17)
(2.06923 -0.820205 3.89318e-18)
(0.267764 -0.00686416 5.61078e-19)
(-0.247928 -0.119707 2.07096e-18)
(2.65306 -0.117046 1.43471e-18)
(2.71375 -0.0995728 3.54354e-19)
(0.243853 0.0475029 -1.21229e-18)
(0.638961 -0.305274 7.54742e-19)
(2.48186 -0.119583 7.23973e-19)
(0.0997544 0.311269 2.25271e-17)
(1.39726 -1.19317 1.3642e-17)
(0.255358 -0.292018 3.56791e-19)
(0.382952 -1.02465 1.34609e-17)
(1.15199 -0.390503 1.58801e-18)
(2.11059 -0.238508 6.1352e-18)
(0.438357 0.521092 1.24653e-17)
(0.155582 -0.18109 1.06887e-17)
(0.109203 -0.0759188 7.1098e-18)
(1.60848 -1.07274 8.83893e-18)
(2.60029 -0.107831 -3.31469e-20)
(-0.196074 -1.2253 1.05823e-17)
(0.49868 -0.0192376 1.31076e-18)
(2.67408 -0.0433297 1.55675e-18)
(0.202138 0.245272 -4.29124e-19)
(0.0319961 -0.138402 2.1338e-17)
(0.240626 -0.21585 7.74759e-18)
(2.46579 -0.0335091 3.32121e-19)
(0.577831 -0.439177 2.232e-19)
(0.546895 0.108193 3.99506e-18)
(2.13416 -0.108971 5.81207e-18)
(1.01947 -1.29958 9.92118e-18)
(0.405517 -0.775738 9.16901e-19)
(1.289 -1.22518 1.11334e-17)
(2.51131 -0.0949068 3.89678e-18)
(0.201162 -0.00754121 4.60907e-19)
(2.00799 -0.053467 1.4611e-18)
(2.31924 -0.271203 6.29285e-18)
(2.58645 -0.186585 2.63298e-18)
(2.04624 -0.398648 6.4929e-18)
(0.0107195 0.234797 1.78517e-17)
(0.208652 -0.0853157 2.01787e-17)
(2.68123 -0.202597 -5.22376e-19)
(0.747774 -1.37741 1.19481e-17)
(0.242614 0.178217 1.97296e-17)
(2.54456 -0.11249 1.86253e-20)
(0.87899 -1.32849 1.20465e-17)
(0.208144 -0.233747 8.27061e-18)
(0.13557 -0.164451 9.30953e-18)
(0.0236021 -0.222031 8.61119e-18)
(0.273863 -0.0122712 8.69001e-19)
(2.44929 -0.235681 1.88231e-19)
(0.569711 -1.47091 1.23342e-17)
(2.3585 -0.0197194 4.04629e-18)
(2.35892 -0.0528187 1.9734e-19)
(0.344904 -0.184321 7.53597e-19)
(0.984916 -1.50499 4.82638e-18)
(2.38998 -0.114134 3.63126e-18)
(0.675128 -1.40893 1.22647e-17)
(0.178906 -0.165686 4.23242e-19)
(2.62555 -0.103185 1.5076e-18)
(0.304195 -0.184635 5.51325e-18)
(2.68933 -0.15434 1.72157e-18)
(0.303191 -1.35077 1.18773e-17)
(0.552546 -1.43503 1.25521e-17)
(1.87435 -0.119226 1.84747e-18)
(0.356144 -0.940581 4.16526e-18)
(0.220919 -0.357296 -2.01689e-19)
(1.71288 -0.278691 8.66203e-18)
(2.2059 -0.385104 5.21718e-18)
(-0.0139308 -0.204514 1.38221e-17)
(0.196229 -1.09787 1.31056e-17)
(2.60215 -0.188227 4.79037e-19)
(-0.0121562 -0.244124 1.07091e-17)
(1.31945 -0.239505 4.26022e-18)
(-0.0589137 -0.467902 4.46676e-18)
(0.405878 -1.57711 1.14036e-17)
(0.490561 -1.44153 1.25647e-17)
(2.60259 -0.299532 5.45707e-18)
(0.207307 -0.0136677 6.92118e-19)
(-0.140646 -1.24253 8.57368e-18)
(2.52282 -0.179399 6.54481e-19)
(0.756061 -1.7639 9.37649e-18)
(0.277825 -0.249981 8.15879e-18)
(0.0648293 -0.0638576 1.60075e-17)
(0.214196 -0.137577 9.35027e-18)
(0.446529 -1.45725 1.3891e-17)
(1.08175 -0.481939 7.57407e-19)
(0.416641 -0.0765788 1.17749e-18)
(0.227763 -0.339999 -6.4957e-19)
(0.0905686 -0.31523 1.94878e-17)
(0.271813 -0.0187076 1.13443e-18)
(1.5545 -0.261694 1.02272e-17)
(2.58794 -0.294666 -8.61509e-19)
(0.478932 -0.436003 -1.02767e-20)
(0.04694 -1.33394 1.27157e-17)
(1.61706 -0.679927 9.13005e-18)
(2.48413 -0.217443 3.74911e-19)
(2.66566 -0.095522 1.8469e-18)
(0.465594 -1.46472 1.2587e-17)
(2.68357 -0.0627114 4.49844e-19)
(2.32405 -0.252317 6.93366e-18)
(0.479937 -1.0554 1.24469e-17)
(0.418899 -0.174899 6.43183e-19)
(2.45048 -0.727074 -2.05673e-19)
(-0.0130547 0.0354872 2.82347e-18)
(0.145493 0.0384411 1.72501e-18)
(0.208024 -0.273212 -3.45858e-19)
(0.940147 -0.200287 1.20982e-17)
(0.0379286 -0.184786 1.87285e-17)
(1.916 -0.392052 5.85101e-18)
(0.169243 0.0186012 5.60566e-18)
(0.143013 0.495632 1.94545e-17)
(2.4199 -0.228869 -6.59501e-20)
(0.497813 -1.24924 1.15582e-17)
(0.136055 -0.350628 1.33042e-18)
(0.493805 -1.46086 1.26175e-17)
(1.1799 -0.345193 4.91523e-18)
(2.51424 -0.444263 2.64426e-18)
(2.48656 -0.259818 2.25553e-18)
(0.0978308 0.133715 1.85379e-17)
(0.200295 -0.0307957 6.90347e-19)
(0.141133 -0.897718 1.33577e-17)
(0.903623 -0.610043 9.84831e-18)
(0.113923 0.0821174 2.04017e-17)
(0.50087 0.123182 2.87639e-18)
(0.260356 -0.904092 3.96106e-18)
(0.247449 -0.0572502 1.24413e-19)
(0.566693 -1.41488 1.09638e-17)
(2.48709 -0.190232 -3.93496e-19)
(1.66778 -0.636982 1.09649e-17)
(-0.335281 0.483348 1.63751e-17)
(0.645642 -0.504174 4.78975e-18)
(0.150639 -1.49999 1.17411e-17)
(-0.034302 -0.00639229 4.01683e-18)
(-0.265345 -0.0464125 1.27767e-18)
(-0.0979082 -1.27518 1.22775e-17)
(0.326683 -0.224093 8.24035e-18)
(0.179425 -0.243994 -8.19197e-20)
(-0.00501363 -1.40286 1.21454e-17)
(0.171494 -0.0451129 -7.83199e-19)
(2.37608 -0.539872 7.4955e-18)
(0.697331 -1.7813 8.40545e-18)
(0.813124 -1.58919 2.7523e-18)
(0.707745 -1.44243 1.06366e-17)
(2.17955 -0.268895 4.64647e-19)
(0.183454 0.0222323 1.93296e-18)
(0.691662 -1.61667 7.32082e-18)
(2.48578 -0.245811 1.84655e-18)
(0.656385 0.002444 3.47855e-18)
(0.240015 -0.181642 8.973e-18)
(0.83213 -0.876058 1.17148e-17)
(0.749911 -0.576304 9.04848e-18)
(2.75871 -0.741194 2.96469e-18)
(0.38007 -0.556553 -4.04319e-19)
(0.216635 -0.0326162 3.15762e-18)
(2.62403 -0.0354798 -8.46854e-19)
(0.645953 -1.32701 1.07848e-17)
(1.26043 -0.74546 9.41247e-18)
(2.52136 0.00494992 1.33276e-18)
(-0.32006 0.250893 8.00061e-18)
(2.06669 -0.290639 6.03023e-18)
(1.85502 -0.880658 1.1271e-17)
(-0.125758 0.0529602 5.49028e-18)
(1.72988 -0.428228 1.25055e-18)
(0.168105 -0.372267 3.4236e-19)
(2.43174 -0.129382 -7.93667e-20)
(2.36995 -0.274315 6.225e-19)
(1.12166 -0.595611 4.79901e-19)
(0.323509 -1.17625 8.48477e-18)
(2.50463 -0.247482 1.60519e-18)
(0.648907 -1.09611 7.42709e-18)
(2.70301 -0.70985 3.22046e-18)
(0.776411 -1.43748 1.26336e-17)
(0.0967845 -0.169202 7.40434e-19)
(0.552062 -0.675006 5.09326e-18)
(0.610453 -1.25081 1.23722e-17)
(0.763545 -1.06175 1.1842e-17)
(0.391755 -0.801412 1.03811e-17)
(1.21847 -1.06364 1.14071e-17)
(0.178731 -0.368825 -6.88016e-20)
(0.309015 0.0967768 8.9219e-18)
(2.67949 -0.986309 1.66919e-18)
(0.397219 -0.237045 8.9251e-18)
(-0.202967 -1.29928 1.22911e-17)
(-0.0967262 -1.17606 8.5372e-18)
(-0.125179 0.075622 1.5996e-17)
(0.121547 -1.06232 8.4117e-18)
(0.763558 -0.99744 1.28147e-17)
(2.0879 -0.357141 2.42933e-19)
(2.10321 -0.477563 1.2296e-18)
(0.0207549 -0.193875 1.99324e-17)
(-0.189721 -0.389348 4.09336e-20)
(0.162856 -1.51915 1.09304e-17)
(0.335113 -0.0424561 7.13994e-18)
(0.172754 -0.338381 -6.39934e-19)
(0.199395 0.146761 -1.15699e-18)
(0.540767 -1.20011 1.10662e-17)
(2.51972 -0.30282 1.97029e-18)
(-0.976497 -1.97321 6.58536e-17)
(0.1571 -0.841599 6.78953e-18)
(-0.120465 -1.36181 1.1776e-17)
(0.406882 -1.59749 8.68197e-18)
(0.803173 -1.33908 7.89135e-18)
(2.24309 -0.525804 1.26176e-18)
(0.870074 -1.24343 1.17937e-17)
(2.8849 -0.957636 2.30325e-18)
(1.77109 -0.310324 6.66247e-18)
(0.233003 -0.697532 9.46733e-18)
(0.592011 -1.0551 1.10009e-17)
(0.582334 -1.35472 6.08236e-18)
(2.38034 0.0236936 1.41369e-18)
(2.46187 -0.383595 -6.78346e-19)
(-0.131353 -1.18598 5.16468e-18)
(0.722302 -0.925733 1.19564e-17)
(-0.0357149 0.087168 7.77975e-18)
(-0.189409 -1.30289 1.17366e-17)
(-0.243968 -1.24865 1.20643e-17)
(2.19952 -1.15628 5.85073e-18)
(-0.113101 -1.15922 7.52862e-18)
(-0.0998286 -1.1907 8.64346e-18)
(0.16775 -0.322699 -2.03494e-19)
(2.34808 -0.163517 -9.12439e-19)
(1.90626 -0.0628109 4.61983e-18)
(2.37171 -0.236393 2.59415e-18)
(0.46948 -1.12812 6.06561e-18)
(0.0185812 -0.14959 1.73188e-18)
(0.710253 -1.29541 5.94006e-18)
(0.985179 -0.80918 1.17304e-17)
(0.650397 -1.26634 1.19334e-17)
(0.129495 -0.380083 2.19111e-18)
(2.95178 -0.683337 2.43781e-18)
(2.10449 -0.145458 6.47206e-19)
(0.379602 -1.20231 2.61885e-18)
(0.426741 -1.20077 1.06847e-17)
(0.0147588 -0.0439663 1.08772e-17)
(1.75362 -0.241649 6.79003e-18)
(2.47082 -1.23557 4.39675e-18)
(0.27167 -1.16592 8.87275e-18)
(-0.17441 -1.19955 8.50862e-18)
(0.138749 -0.0636847 -3.63627e-19)
(0.113731 -0.288045 -2.31956e-20)
(0.441034 -0.235563 7.95531e-18)
(1.34399 -0.0885791 1.03674e-17)
(0.182977 0.0273745 -6.45472e-19)
(0.954698 -1.31473 8.32189e-18)
(0.231133 -0.461623 4.65017e-18)
(0.147594 -1.23799 3.50431e-18)
(2.5292 -0.385158 8.48371e-19)
(1.80751 -0.270893 8.976e-19)
(0.125897 -0.998358 1.25389e-17)
(2.8506 -0.639471 9.36965e-19)
(0.512316 -1.15829 1.09868e-17)
(0.469635 -1.37699 1.19037e-17)
(0.0215314 -0.764739 6.94679e-18)
(0.85175 -1.61716 2.45621e-18)
(0.142849 -0.366008 8.10456e-19)
(-0.0910111 -1.32362 1.12409e-17)
(0.708703 -0.175353 1.142e-17)
(0.917202 -0.686601 2.71204e-19)
(-0.00488424 -1.35866 1.0702e-17)
(1.91964 -0.310075 5.24392e-18)
(0.15898 -0.355722 3.23636e-18)
(0.380434 -0.132857 7.8359e-18)
(1.7797 -0.870486 6.83658e-18)
(0.424928 -1.40389 5.67767e-18)
(0.288942 -0.517778 -3.98747e-19)
(-0.49138 -0.391856 1.00693e-17)
(3.00263 -0.931427 3.71191e-18)
(0.56096 -1.04765 1.20714e-17)
(0.769183 -1.36678 5.15296e-18)
(0.149552 -0.372896 9.86415e-20)
(0.714611 -1.21356 1.13403e-17)
(2.47516 -0.488646 2.15526e-18)
(0.271902 -1.07948 9.14972e-18)
(0.55963 -0.994295 1.23807e-17)
(0.537324 -1.26329 4.30597e-18)
(0.220678 0.0910146 -1.02084e-18)
(0.412878 -1.31624 1.09662e-17)
(1.91366 -1.20147 8.34076e-18)
(2.45708 -0.223716 1.87327e-18)
(1.0235 -0.633308 1.23183e-17)
(1.73755 -0.100813 2.66264e-18)
(-0.28109 -0.110754 -7.16867e-19)
(-0.222275 -1.23162 4.57831e-18)
(-0.0281131 -0.0792933 6.20179e-18)
(0.0633821 -1.02636 1.35832e-17)
(0.0678308 -0.265358 -6.77556e-20)
(1.98528 -0.225295 9.03323e-19)
(0.436921 -1.43525 2.7474e-18)
(-0.25661 -1.25664 1.1402e-17)
(3.15414 -0.787225 2.32877e-18)
(1.12992 -0.315606 6.2633e-18)
(0.383573 -1.29088 1.01221e-17)
(1.44138 -0.21764 1.05002e-17)
(1.53682 -0.310358 2.66568e-18)
(0.490266 -0.70323 4.39984e-18)
(-0.189871 -1.27618 1.07264e-17)
(2.22813 -0.576763 1.77396e-18)
(-0.275096 -1.18254 6.3215e-18)
(0.144807 -0.384261 -6.75949e-19)
(2.26096 -1.29317 9.04857e-18)
(0.283021 -0.0849881 2.45101e-18)
(1.55781 -0.613461 8.05481e-18)
(0.552387 -0.244324 7.74751e-18)
(0.253052 -1.38545 2.36296e-18)
(-0.093883 -1.37831 2.69487e-18)
(-0.109372 -0.645941 8.58877e-18)
(0.454976 -1.34733 1.04745e-17)
(0.717733 0.0645403 1.80551e-18)
(1.3702 -0.550753 8.08301e-18)
(3.00918 -0.463939 -2.62071e-19)
(-0.339003 -0.17844 4.88062e-18)
(0.347029 -0.474534 3.25167e-18)
(1.78226 -0.331078 7.15175e-18)
(0.14249 -0.37672 -8.57033e-19)
(-0.206932 -0.410831 5.15585e-18)
(0.278485 -1.03485 1.08743e-17)
(-0.321417 -1.24193 4.07444e-18)
(-0.224803 -1.23281 6.27963e-18)
(0.0931496 -1.07022 1.31077e-17)
(0.226583 -1.08632 8.27859e-18)
(0.914005 -1.45231 5.43312e-18)
(-0.242385 -1.35653 2.07198e-18)
(2.62973 -1.15543 9.23866e-18)
(1.4452 -0.928193 9.68038e-18)
(0.704084 -0.988597 1.09675e-17)
(-0.240022 -1.11579 3.32854e-18)
(0.976062 -1.23078 8.9646e-18)
(0.179392 -0.623197 6.3321e-19)
(0.242449 0.0521451 1.27877e-19)
(0.931019 -1.09053 1.03e-17)
(2.83441 -0.480892 3.44948e-19)
(0.939002 -0.861079 5.47122e-19)
(0.0723806 -1.23797 8.99807e-18)
(0.175306 -0.381057 1.29753e-18)
(-0.324416 -1.19887 5.184e-18)
(0.571635 -1.4521 2.71219e-18)
(0.816896 -0.802111 1.16594e-17)
(-0.0714059 -0.0265203 7.93713e-18)
(0.21949 -1.17383 5.92962e-18)
(-0.15943 -1.25235 9.30035e-18)
(2.34398 -0.260573 2.62577e-18)
(1.60531 -1.32768 1.07221e-17)
(0.431159 -0.144444 7.62263e-18)
(0.661678 -1.73388 3.71519e-18)
(-0.129663 -1.2348 1.05456e-17)
(1.39903 -0.158734 1.39681e-17)
(3.25097 -0.468499 3.4712e-18)
(0.414205 -0.820784 2.73591e-18)
(0.116461 -0.365108 -2.87381e-19)
(0.142218 -0.378496 9.72321e-19)
(0.342478 -1.48664 2.41457e-18)
(0.951262 -0.356622 6.18039e-18)
(-0.00327719 -1.48919 1.72826e-18)
(-0.187218 -1.48572 1.82088e-18)
(1.78254 -1.31844 1.0691e-17)
(1.42593 -0.428625 1.12653e-18)
(0.364756 -1.18248 1.01989e-17)
(-0.349948 -1.15936 4.945e-18)
(2.34891 -0.486201 -1.25387e-19)
(-0.140573 -1.2358 1.03794e-17)
(0.131499 -0.413944 -4.05823e-19)
(0.392429 -0.642646 2.57216e-18)
(0.483171 -0.54047 7.37007e-18)
(0.955809 -0.595513 3.8912e-18)
(-0.0434322 -0.301473 2.72871e-18)
(0.462902 -0.379437 1.06208e-18)
(1.18234 -0.658311 1.27758e-17)
(-0.113964 -0.646115 1.16607e-17)
(1.54359 -0.648482 5.63887e-18)
(0.243002 -1.03769 1.08449e-17)
(3.23041 -0.370025 -8.88444e-19)
(0.378459 -0.177101 9.45176e-18)
(0.495982 -0.320876 8.18649e-18)
(-0.43191 -1.4444 8.53366e-19)
(0.0462175 -0.862302 7.60616e-18)
(1.99037 -0.384182 6.29796e-18)
(0.314477 -0.147892 2.38611e-18)
(1.17671 -1.18053 1.14063e-17)
(2.68082 -0.778444 1.03446e-17)
(0.0966603 0.4021 1.60119e-17)
(0.472296 -0.382586 1.53584e-18)
(0.0956547 -0.356803 3.84701e-19)
(0.285592 -0.472807 1.33585e-18)
(1.16247 -1.0811 7.74883e-18)
(-0.286069 -0.569845 6.20918e-18)
(0.856533 0.955042 2.90637e-17)
(-0.457645 -1.31613 1.41424e-18)
(0.401065 -1.22921 8.96807e-18)
(0.964486 -1.09265 8.40528e-18)
(0.675895 -1.5508 2.9308e-18)
(-0.227037 -1.1861 5.12635e-18)
(2.86263 -0.283129 -7.555e-19)
(1.06305 -0.605636 1.1355e-17)
(0.468919 -0.196882 1.12413e-17)
(0.166506 -0.256442 5.59286e-18)
(0.584595 -0.393555 8.20668e-19)
(-0.36071 -0.128615 2.91708e-18)
(-0.283236 -0.836842 7.69393e-18)
(1.24932 -1.26827 1.18472e-17)
(2.09294 -0.534688 1.01511e-18)
(0.778271 -0.146412 1.02847e-17)
(0.476697 -1.55781 2.64346e-18)
(2.44733 -0.299972 2.19185e-18)
(0.735435 -0.0782369 6.99734e-18)
(0.127848 -0.410615 -7.25056e-19)
(0.711838 -0.970379 1.59622e-18)
(-0.340123 -0.364902 6.66699e-18)
(3.03256 -0.446743 7.21651e-18)
(0.210026 -0.416601 7.55696e-19)
(1.22485 -1.3907 4.75321e-18)
(1.31187 -0.304684 1.1114e-17)
(0.117434 -1.57586 2.56928e-18)
(0.0268481 -0.37844 -4.47924e-19)
(-0.39088 -1.55621 1.44209e-18)
(0.117148 -0.172936 7.18173e-18)
(0.45622 -0.17398 7.78961e-18)
(0.19366 -0.877392 2.71191e-18)
(0.847563 -0.0774955 1.1442e-17)
(1.67657 -1.12643 1.13032e-17)
(-0.486192 -1.1788 2.34865e-18)
(0.359617 -1.13059 1.06376e-17)
(-0.0890201 -1.59501 1.57585e-18)
(0.695491 -0.598678 -2.49438e-18)
(0.489769 -0.443697 2.07091e-18)
(-0.0570985 -1.03055 8.33495e-18)
(0.562715 -1.09939 1.30188e-17)
(0.136655 -0.436061 1.39486e-19)
(0.27021 0.201174 1.11594e-17)
(1.01995 -0.947337 1.14965e-17)
(2.64561 -0.345439 -3.01269e-18)
(-0.00161676 -0.122702 2.14726e-17)
(0.585197 -0.51623 -1.65906e-18)
(0.505627 -0.452631 6.0399e-19)
(0.249136 -0.79346 1.70406e-18)
(-0.552844 -1.53463 1.18378e-18)
(0.310885 -0.404556 -1.73533e-19)
(-0.569118 -1.40549 9.29241e-19)
(1.20769 -0.710376 5.69744e-18)
(-0.911812 0.0311079 1.56563e-18)
(-0.0801266 -1.12129 9.35173e-18)
(-0.10241 -0.637787 1.26823e-17)
(1.29429 0.594448 9.43032e-18)
(3.1845 -0.041418 1.10456e-18)
(0.0689889 -0.99943 1.1434e-17)
(0.858415 -0.677495 7.03797e-18)
(0.109774 -0.414196 -8.07344e-19)
(0.80796 -0.122288 8.98781e-18)
(0.542383 -1.19964 1.37513e-17)
(0.931097 -1.11477 1.15281e-17)
(-0.0693638 -1.22192 5.73638e-18)
(0.244065 -0.183633 8.62218e-18)
(0.156473 -0.531805 1.36735e-18)
(1.98723 -0.828303 1.06807e-17)
(-0.563089 -1.28765 1.48308e-18)
(0.298487 -0.561022 6.31258e-18)
(0.5709 -0.318253 7.841e-18)
(0.279147 -0.596066 -1.29924e-18)
(0.45675 0.600628 5.58019e-17)
(0.28776 -0.610406 1.04702e-18)
(0.12019 -0.436662 -1.41314e-19)
(0.702395 -1.15702 5.36753e-18)
(1.09484 -1.17166 1.18669e-17)
(0.0311017 -0.824056 8.61354e-18)
(-0.0928336 -0.387411 5.47423e-18)
(0.0263451 -0.363749 -1.2313e-18)
(-0.550993 -1.21613 1.83017e-18)
(0.403783 -0.836795 1.18282e-17)
(0.389495 0.0146887 1.03705e-17)
(-0.48107 -1.1267 2.44056e-18)
(1.22892 -1.01421 7.84229e-18)
(0.238665 -0.386655 -4.65987e-19)
(0.797527 -1.02119 1.40675e-17)
(3.04281 -0.0447456 8.74657e-19)
(0.000587581 -0.405637 -9.00071e-19)
(1.27334 -0.785525 1.02545e-17)
(-0.277158 -0.0571685 -5.1098e-20)
(1.51093 -1.18683 3.64242e-18)
(0.260738 -0.544716 7.80081e-19)
(0.608381 -1.63955 3.61773e-18)
(0.253494 -1.67097 2.42749e-18)
(2.93786 0.0575445 7.00355e-18)
(1.48155 -0.470643 9.02104e-18)
(0.559326 -1.61562 3.00062e-18)
(-0.0245921 -1.20153 8.54824e-18)
(1.22094 -1.02177 1.18994e-17)
(-0.215278 -1.07411 4.08659e-18)
(1.32325 -1.3475 3.27066e-18)
(2.41538 -0.382841 2.81334e-18)
(2.16241 -0.44585 5.14492e-19)
(0.0346709 -1.70159 2.36989e-18)
(1.42462 -0.273383 3.76717e-18)
(-0.0219893 -0.655482 7.85133e-18)
(-0.153795 -0.094027 4.4408e-19)
(-0.313592 -1.68516 1.10651e-18)
(1.37311 -0.701077 3.35413e-18)
(0.0989975 -0.412727 -1.59552e-18)
(1.12905 -0.828219 9.68563e-18)
(0.590984 0.0301509 1.05902e-17)
(0.936773 -0.24619 1.2737e-17)
(0.474828 -0.483874 2.81206e-18)
(0.00522192 -0.401408 -8.31736e-19)
(0.184079 -0.489304 1.7595e-19)
(-0.504248 -1.67815 1.58579e-18)
(-0.0250636 -0.304831 2.18605e-17)
(0.82279 -1.09697 1.06329e-17)
(-0.575908 -1.1156 1.52009e-18)
(2.58195 -0.174381 -1.27122e-18)
(3.03162 0.226741 6.64368e-18)
(1.92944 -0.160923 9.47606e-18)
(0.105174 -0.448831 -6.0346e-19)
(0.319923 0.0312716 2.19501e-19)
(0.161284 -0.698967 4.90994e-18)
(-0.0243355 -1.22541 7.23378e-18)
(0.148339 -0.472756 3.87737e-20)
(0.145507 -0.956445 9.32093e-18)
(-0.378246 -1.11437 2.33708e-18)
(0.516581 -0.497213 2.36288e-18)
(0.208777 -0.0333294 8.24644e-18)
(0.059437 -0.764676 2.60434e-18)
(-0.00693425 -0.788533 4.79974e-18)
(-0.772473 -1.32467 5.95158e-19)
(-0.778314 -1.44529 8.6365e-19)
(0.824014 -1.01515 1.11356e-17)
(-0.0524287 -0.661867 1.05683e-17)
(-0.762669 -1.58958 9.66939e-19)
(0.0853695 -0.0913972 4.08315e-19)
(0.171898 -0.683005 6.35048e-19)
(0.419347 -0.451732 2.49884e-18)
(0.375502 0.580431 1.54625e-17)
(0.068265 -0.662595 1.1522e-17)
(0.452128 -1.2006 8.01914e-18)
(1.48972 -0.723303 6.36858e-18)
(1.86127 -0.603158 2.12145e-18)
(-0.0640193 -1.00577 7.96479e-18)
(0.186505 0.0951329 8.99326e-18)
(0.0629311 -0.428887 -3.58121e-19)
(2.30863 0.287712 7.42313e-18)
(1.09748 -0.457438 1.1386e-17)
(0.106693 -0.479466 -2.0823e-19)
(0.484298 -0.86334 1.46257e-17)
(1.65804 -0.979076 2.60839e-18)
(0.428905 -0.268636 7.99938e-18)
(0.522522 -0.54354 -1.01236e-18)
(1.59952 -1.089 2.83851e-18)
(0.453826 -1.74363 4.26004e-18)
(1.50859 -0.637443 6.58036e-18)
(0.193381 -0.650736 4.39352e-19)
(2.86634 0.162525 1.22707e-18)
(2.35824 -0.300329 -6.76432e-19)
(0.50042 -0.507302 3.17458e-18)
(0.19887 -1.7944 2.35317e-18)
(0.0944268 -0.0798799 -1.80663e-20)
(1.02876 -0.841776 8.81017e-18)
(0.344422 -0.910781 1.42277e-17)
(-0.195834 -1.80969 1.9545e-18)
(1.07755 -0.61269 6.10932e-18)
(-0.0207787 -1.09633 7.71087e-18)
(0.143363 0.169119 2.02884e-17)
(0.0444329 -0.442661 5.69182e-20)
(-0.732018 -1.1534 1.13188e-18)
(0.0968876 -0.448252 -6.42473e-19)
(-0.26735 0.270089 -7.06617e-19)
(-0.491424 -1.08705 1.7179e-18)
(-0.0511753 -0.0169236 3.56765e-18)
(0.123464 -0.0811783 3.80329e-18)
(0.245314 -0.503376 -1.63017e-20)
(0.499408 -0.0927234 8.93133e-18)
(0.192118 -0.569968 1.69218e-19)
(-0.422599 -1.81986 1.60906e-18)
(0.560527 -0.51456 1.1849e-17)
(0.0534279 -0.0629274 1.76603e-18)
(1.39085 0.0914679 9.58091e-18)
(-0.882459 -1.40419 8.92229e-19)
(0.786201 -0.935068 9.26757e-18)
(-0.891152 -1.55389 7.72751e-19)
(1.10587 -1.47775 1.96183e-18)
(-0.81862 -1.29242 4.09203e-19)
(0.460141 -0.839215 1.15295e-17)
(0.498033 -0.531306 1.82101e-18)
(-0.720865 -1.75327 1.21616e-18)
(0.0936358 -0.477995 -1.12114e-19)
(-1.8357 -0.443448 -2.80764e-17)
(0.455095 -1.36238 1.03976e-17)
(-0.191524 -0.190602 -8.56296e-19)
(2.77137 0.520958 5.6213e-18)
(-0.0367087 0.0965561 6.71109e-18)
(2.71496 0.0757573 2.57311e-18)
(0.168682 -0.543464 1.87368e-20)
(0.790755 -0.470491 1.10345e-17)
(0.262291 -1.65602 3.1084e-18)
(0.166763 -0.933413 1.13347e-17)
(0.0731656 -0.057323 9.08127e-18)
(0.914421 0.601013 6.29812e-17)
(-0.0618263 -0.705697 9.94165e-18)
(-0.246012 -0.763439 3.06823e-18)
(0.393214 -0.556087 -2.08641e-20)
(0.134471 -0.0596907 2.27435e-20)
(-0.795791 -1.19328 5.66301e-19)
(-0.173666 -0.502551 2.17121e-18)
(-0.879409 -1.72525 7.17325e-19)
(-0.357653 -0.962171 3.14309e-18)
(0.123245 -0.520365 -3.42787e-20)
(0.878477 0.0228686 1.03204e-17)
(0.196722 -0.36975 1.16051e-17)
(1.65832 -0.35157 5.76651e-18)
(2.03792 0.704687 5.66993e-18)
(0.329564 -0.307751 5.01485e-18)
(1.67473 -0.780394 2.38749e-18)
(-0.705493 -1.07194 -2.33465e-20)
(1.6326 -0.769218 2.7417e-18)
(-0.233988 -0.0186202 5.3037e-18)
(-0.0594652 -1.90772 1.42954e-18)
(0.440555 -0.331246 8.47809e-18)
(0.0526828 -0.679475 9.17544e-19)
(2.73609 0.481063 2.41607e-18)
(1.34694 -0.499048 6.73173e-18)
(-0.32076 0.301496 -7.54879e-18)
(0.350225 -1.82082 2.8539e-18)
(0.469534 -1.13817 1.41242e-17)
(0.074993 -0.464574 -1.04716e-18)
(0.0473338 -0.655733 1.21495e-17)
(1.24552 -0.143209 8.75228e-18)
(0.783037 -1.49831 1.26459e-17)
(-0.0609389 -0.457144 1.92237e-18)
(-0.3831 -1.06957 2.57371e-18)
(1.37576 -1.18164 2.60824e-18)
(-0.000519919 -0.783584 5.87082e-18)
(0.0114989 0.540705 2.96227e-17)
(0.342187 -0.669832 1.25952e-17)
(1.20629 -0.835855 1.65037e-18)
(-0.0122097 -0.680686 4.35329e-18)
(-0.309826 -1.93802 1.86353e-18)
(1.23901 0.747679 7.98576e-18)
(0.103635 -0.511334 -2.43407e-19)
(0.0959731 -0.67182 3.0193e-19)
(4.83952 -3.8604 1.00935e-17)
(1.10544 -1.3742 2.94481e-18)
(1.93962 -0.510493 3.74392e-18)
(0.353314 -0.0570496 1.358e-18)
(0.72949 -0.147449 8.85764e-18)
(0.740906 -0.551448 8.76846e-18)
(-0.0730519 -0.951503 6.6384e-18)
(0.0761573 -0.492553 -7.37035e-19)
(-0.065804 -1.13787 5.45987e-18)
(2.12943 0.746828 -8.44163e-19)
(-0.779002 -1.07451 -2.99835e-19)
(-0.647337 -1.91094 1.31752e-18)
(2.21682 0.835972 4.43243e-18)
(-0.01148 -0.447714 -1.4483e-19)
(0.13961 -0.632928 6.51044e-20)
(-0.402412 0.351355 2.58628e-17)
(-1.0628 -0.232231 -1.61169e-18)
(2.23384 -0.245619 2.34148e-18)
(0.150968 -0.399547 9.34307e-18)
(-0.983639 -1.26225 2.52309e-19)
(0.498271 -0.457884 3.35873e-18)
(0.69275 -0.0591585 9.28519e-18)
(1.85462 -0.421169 8.36447e-18)
(0.423972 -1.12727 1.32978e-17)
(-0.041263 -0.790479 1.35239e-17)
(0.0473999 -1.02627 5.08185e-18)
(0.422466 -0.391816 2.83776e-18)
(-1.07817 -1.59147 8.92944e-19)
(0.140438 -0.613325 -7.06228e-20)
(1.47097 1.01396 5.70614e-18)
(-1.04945 -1.41969 5.86635e-19)
(-0.837275 -1.90129 9.97332e-19)
(0.0193727 -0.579095 1.10215e-17)
(-0.620076 -1.01455 3.51845e-19)
(0.0753026 -0.52035 -6.51946e-19)
(2.47716 0.103955 4.37889e-18)
(1.63393 -0.432301 3.36922e-18)
(0.794574 0.81731 1.01537e-17)
(1.59987 -0.308106 4.42178e-18)
(0.0652641 -0.475264 -8.97431e-19)
(-1.05815 -1.27046 2.15334e-19)
(0.126127 -0.573872 -1.07394e-19)
(0.0561478 0.25504 -9.95395e-19)
(0.36664 -1.34012 1.03853e-17)
(-0.710979 -0.341806 -1.43833e-18)
(1.58328 -0.749796 4.04432e-18)
(1.14673 -0.0570617 6.61747e-18)
(0.218862 0.124634 -1.24657e-18)
(0.879236 -1.15416 9.6004e-18)
(1.36274 -0.95622 3.94569e-18)
(0.865273 1.08411 7.19267e-18)
(-0.937098 -1.10871 5.71464e-19)
(1.51502 -0.828537 5.784e-18)
(0.0758972 -0.804598 1.22775e-17)
(-1.079 -1.78325 2.14249e-19)
(-0.151071 -0.00211987 3.72519e-18)
(0.0689745 -0.500204 -2.33979e-19)
(-0.703284 -1.00233 1.64095e-19)
(0.0702432 -1.8898 1.86582e-18)
(0.595646 -1.23404 1.39406e-17)
(2.37773 0.506358 2.91863e-18)
(0.486226 -0.468244 1.74986e-18)
(0.0306152 -0.493974 -2.0236e-19)
(-1.1058 -1.36968 3.4221e-19)
(-0.0337628 -1.06521 4.45673e-18)
(-0.177861 -1.96176 1.13086e-18)
(-0.140049 -0.595212 1.76201e-18)
(0.205576 -1.19421 1.38161e-17)
(-0.544489 -2.02586 1.03129e-18)
(0.49907 -0.440033 2.3448e-18)
(0.83594 0.00872928 7.20114e-18)
(0.147413 -0.535055 9.73231e-18)
(0.354087 -0.880755 1.25369e-17)
(0.110189 -0.559805 -6.30841e-19)
(2.06631 -0.447291 4.0839e-18)
(0.637223 -1.48697 1.16209e-17)
(0.0884597 -0.616263 1.14484e-17)
(1.81668 0.860183 2.84679e-18)
(-0.104428 -0.70199 2.04906e-18)
(0.0659707 -0.524584 -1.53018e-18)
(0.560849 -1.24046 1.28769e-17)
(0.0133031 -0.00573888 5.74259e-19)
(0.882157 -1.43759 2.75003e-18)
(0.159947 -0.8434 8.76811e-18)
(2.38435 -0.066373 4.76552e-18)
(-1.00007 -1.1399 2.37975e-19)
(-0.0714307 -0.520258 1.05991e-18)
(0.237793 -1.46843 1.7497e-18)
(0.755324 0.90094 9.33227e-18)
(-0.753256 -2.05195 7.06276e-19)
(0.392419 -1.41297 1.08181e-17)
(-1.21102 -1.73301 3.21279e-19)
(-1.17669 -1.53124 -2.55741e-19)
(1.10943 1.14579 4.36632e-18)
(0.0779508 -0.548952 -6.16438e-19)
(0.166141 0.0719638 1.75248e-17)
(-0.316774 -0.899575 2.36355e-18)
(-0.0222015 -0.641177 1.89407e-18)
(0.00810845 -0.639844 8.7453e-19)
(0.0685585 -0.657213 1.12997e-20)
(-0.8706 -1.01122 -1.83661e-18)
(0.0439397 -0.995627 1.55721e-17)