/*--------------------------------*- C++ -*----------------------------------*\
  =========                 |
  \\      /  F ield         | OpenFOAM: The Open Source CFD Toolbox
   \\    /   O peration     | Website:  https://openfoam.org
    \\  /    A nd           | Version:  8
     \\/     M anipulation  |
\*---------------------------------------------------------------------------*/
FoamFile
{
    version     2.0;
    format      ascii;
    class       surfaceScalarField;
    location    "0.45";
    object      alphaPhi0.water;
}
// * * * * * * * * * * * * * * * * * * * * * * * * * * * * * * * * * * * * * //

dimensions      [0 3 -1 0 0 0 0];

internalField   nonuniform List<scalar> 
2805
(
5.72352e-07
-3.3061e-05
-2.59663e-05
1.75207e-08
1.1924e-08
-2.62975e-08
-1.62718e-09
2.8206e-07
2.63402e-07
-1.20531e-11
9.00435e-09
-6.94395e-09
-2.0268e-12
4.00039e-07
0
-1.91307e-12
-7.86203e-09
5.24069e-09
4.11547e-10
-1.67843e-10
-2.14318e-09
-2.39366e-10
-2.64599e-10
1.10949e-07
5.5972e-13
-2.18003e-10
0.00159101
-0.00133609
-0.000271305
-8.68819e-11
1.91454e-10
-7.16664e-08
1.14056e-06
-5.87989e-09
2.28909e-06
-2.14875e-07
0.00156987
1.9091e-05
-7.21447e-12
-5.10561e-13
5.34913e-07
-0.000149453
-6.00714e-12
2.34967e-12
0.00135652
-0.000161019
-0.00119561
-0.000617292
0.00117919
-0.00053948
-0.000761102
0.000406968
-0.000378154
-4.21041e-12
-1.65192e-14
-0.00104857
0.000262614
-6.66765e-06
1.16649e-05
-1.45881e-06
-3.31995e-06
-3.3613e-06
8.34619e-09
3.16166e-09
-1.32829e-08
-4.96282e-09
1.56924e-10
4.56498e-09
-7.6333e-11
5.77926e-13
7.49484e-11
-0.0010765
0.000252535
-0.000595739
-0.000337977
0.000140832
-7.28516e-05
-8.56193e-05
0.00124744
0.000175749
2.34438e-09
2.3931e-09
5.30105e-06
1.21555e-05
-0.000191729
0.000153196
-1.04e-08
1.29679e-09
-7.95034e-11
1.06932e-09
0.000124501
-1.34783e-05
-5.17478e-05
0.000954468
0.000401915
0.000144668
3.36508e-06
-0.000779508
-8.91778e-11
1.06847e-10
-9.23158e-12
-4.12779e-10
-9.15843e-06
9.15858e-06
0
1.0608e-06
-2.46564e-06
4.94915e-12
-4.88773e-12
-1.51654e-13
0.00037322
-0.00147993
0.00110671
-0.000923413
0.000928342
-4.92904e-06
5.46001e-10
-3.47022e-09
1.34381e-11
-0.000381788
0.00024351
0.000558107
-3.54579e-12
8.96375e-10
-7.776e-05
9.74901e-05
1.23682e-05
5.08725e-11
-1.3447e-05
-2.27992e-12
1.79577e-10
0
-7.77931e-08
7.19018e-07
-1.28452e-09
-8.84018e-06
3.80047e-06
3.46356e-07
2.33778e-06
2.05222e-07
-1.03289e-05
4.75877e-11
-6.33483e-11
1.2631e-11
4.94788e-16
-3.63064e-12
-1.5999e-13
-7.12489e-12
-1.12981e-07
-1.31989e-08
9.80325e-08
0.000382309
-0.00155664
-5.26313e-10
6.85425e-08
-9.14858e-08
0.000334474
-0.000116623
6.86849e-06
6.60451e-07
-1.16736e-07
-3.57522e-11
-3.60905e-13
5.7008e-13
-4.13496e-17
-3.60783e-13
3.94113e-06
4.19868e-06
-4.61544e-05
8.7526e-13
-1.01081e-12
-5.07252e-16
4.77638e-16
-7.51961e-13
5.06406e-13
1.34772e-07
7.49866e-13
-3.38854e-13
1.42016e-13
1.63428e-06
-5.89539e-06
-9.27954e-12
1.19347e-11
1.34663e-12
5.00663e-05
-0.000211178
-1.63535e-05
1.69686e-05
1.54638e-05
4.35497e-10
2.32495e-06
-5.07343e-11
-0.000550193
1.9156e-05
0.000311432
1.08319e-08
-1.35336e-07
-2.42223e-06
5.48175e-06
-7.02372e-10
-2.19768e-05
-1.28298e-10
2.19767e-05
0.000378042
-0.000355318
-8.88093e-16
3.64595e-15
9.24535e-13
5.52452e-12
9.35839e-13
-5.67774e-14
-9.56973e-08
1.92893e-08
1.28891e-05
-2.25382e-05
-6.88452e-07
5.20869e-07
-5.75996e-10
0.000428191
-6.44875e-08
-2.93734e-08
1.13605e-06
-3.21625e-07
1.82546e-05
-7.10473e-09
-5.35192e-14
2.4552e-13
3.83374e-13
-2.12461e-07
6.45617e-10
7.7289e-08
-1.67681e-05
6.75432e-05
0
1.46106e-06
-1.05243e-09
-6.59207e-13
2.72617e-12
6.37802e-10
-1.42841e-09
0
4.7773e-13
-1.84923e-12
6.19219e-13
-5.48379e-13
-2.91841e-13
-0.000169902
-3.99849e-05
-2.21575e-07
-4.65297e-08
-1.65665e-07
1.33693e-07
-4.0246e-07
-7.44096e-08
-1.52965e-12
5.88285e-05
-9.03186e-05
-0.00209737
0.00201291
8.44606e-05
-0.000267122
0.000142318
-5.8988e-08
1.29527e-08
3.98461e-06
-3.98657e-06
-2.32182e-08
4.58713e-06
-1.16489e-05
2.5797e-16
-7.70497e-16
-6.50914e-10
-0.000653746
0.00168202
-0.00102827
1.83525e-13
-7.40605e-13
-3.23819e-07
-9.58492e-05
1.8792e-05
9.66502e-06
-4.92944e-12
4.59395e-05
-5.19118e-10
-7.7417e-09
1.24218e-09
-3.28251e-12
1.56402e-11
-1.09405e-11
2.24984e-09
1.69117e-11
-6.05071e-08
8.32241e-06
-6.33123e-06
0.000327521
-0.000326423
-1.66872e-06
1.81296e-06
-0.00104144
0.000387696
4.12187e-05
-3.75639e-06
8.68008e-07
-2.62138e-06
-2.2079e-08
3.79482e-08
1.29072e-06
1.5962e-06
-0.00209737
-1.13216e-05
0.000118619
-1.85504e-06
1.56786e-06
-2.27587e-08
-1.93791e-07
1.75756e-05
0.00180571
0.000207196
-1.25315e-09
-6.36685e-13
8.54692e-13
-1.1936e-11
2.00308e-05
-1.82139e-05
-1.88549e-12
-1.49197e-13
-0.000138119
-2.344e-08
-0.00213053
3.316e-05
-3.65579e-06
0.000109308
-9.82923e-07
-3.26535e-08
8.88548e-08
-3.39966e-07
0.000610674
0.00119504
-2.92481e-13
-1.09015e-12
-8.66745e-09
0
-4.19271e-05
-2.82175e-08
1.79525e-08
-5.20787e-14
-1.32375e-14
1.16077e-06
1.30004e-11
-1.71315e-05
-1.15586e-05
2.65066e-05
7.2934e-11
2.96823e-05
-4.16668e-06
0
7.31247e-06
-4.20961e-08
3.06101e-08
8.43738e-06
5.33561e-05
-5.8315e-05
-3.50989e-08
1.57306e-09
-4.268e-13
1.77995e-13
3.86447e-13
-7.85287e-08
1.09439e-07
-0.000340034
-0.00113989
3.18506e-07
3.24683e-08
0.000129277
-3.41466e-05
2.47049e-06
1.48514e-06
-2.39802e-06
-1.03345e-12
-5.53865e-13
2.29595e-13
2.00538e-06
4.31919e-05
-1.05008e-08
1.81055e-13
-8.33075e-13
-1.37667e-08
1.09179e-06
-8.53333e-07
-0.00213053
3.83315e-07
4.98757e-07
-9.22014e-07
-3.40864e-05
0.00013144
-2.63469e-06
-2.18476e-05
-0.000183736
0.000472599
0.00024252
2.35486e-07
-1.29454e-06
1.49313e-07
-1.40641e-07
2.57008e-05
-1.67374e-07
1.52737e-07
-0.000135759
0.000395455
0.000359214
3.5363e-06
-0.00216614
3.5612e-05
1.64516e-08
3.53786e-12
-9.78853e-12
7.57304e-12
8.58755e-08
1.39778e-06
3.32626e-05
4.79809e-13
-3.56209e-08
5.50586e-07
-1.68414e-05
-9.17536e-12
-5.02718e-16
-2.98107e-16
3.8133e-06
-3.48596e-12
-2.0797e-07
-2.52747e-11
2.54061e-11
-1.14673e-10
1.54414e-08
7.19195e-07
-2.13437e-12
2.14506e-12
-2.4388e-15
-1.36821e-15
3.68613e-15
2.66387e-06
-1.10569e-06
0.000286764
-0.000116421
0.000178792
-1.73222e-06
3.5197e-08
-1.93235e-08
-2.21814e-08
3.53997e-05
6.65889e-07
-3.51335e-07
1.66328e-05
-1.26463e-13
-1.13602e-11
-1.6784e-10
1.18577e-10
6.09396e-07
-1.58006e-06
-0.00216614
-2.95528e-08
-9.3843e-09
-5.53542e-06
3.56541e-05
-2.18797e-13
1.48841e-13
0.00023045
-0.00014789
6.39087e-06
2.91618e-06
2.20853e-05
1.12229e-10
-2.37661e-10
3.29676e-11
-2.01414e-13
-1.98914e-15
0
-0.00144796
-0.000718179
1.07084e-07
2.10319e-06
-1.25554e-06
-2.10359e-13
-7.30128e-13
1.25469e-11
-5.91074e-11
-5.42384e-05
5.89717e-05
-2.79825e-05
-2.59934e-05
5.22524e-05
-1.88075e-06
-9.13654e-11
1.66967e-05
-6.77337e-07
8.06973e-05
-1.10731e-06
6.72523e-13
-0.000572142
0.000277184
-3.57999e-13
-2.14819e-15
0.00107665
-0.000674822
1.25759e-15
-2.77917e-14
-0.000102333
4.94563e-06
-0.0001548
0.000477591
-6.09649e-07
2.60091e-05
4.25941e-05
-5.24443e-06
-5.7359e-05
1.46959e-08
1.96742e-08
-6.16356e-16
-2.1919e-13
-4.33223e-12
6.14432e-08
7.65953e-07
3.45365e-07
-2.89802e-05
0.000302616
-0.00144796
-1.45645e-08
3.03001e-07
-2.23069e-09
-2.27816e-06
-6.64332e-05
1.17122e-13
-2.53185e-12
-0.00168202
0.000234056
-1.00337e-09
8.34635e-10
-3.56868e-05
2.63726e-07
-3.02308e-07
4.5373e-10
2.85712e-10
3.77227e-06
-9.0406e-08
-1.72597e-13
-2.11147e-11
-3.49288e-05
1.93454e-05
0.000377493
-1.45829e-10
9.03253e-11
-4.25097e-06
0.000275343
-1.56673e-16
-6.60727e-11
-1.20114e-06
2.89765e-15
-2.28843e-13
8.32852e-09
-2.52592e-06
1.50154e-11
-1.65888e-11
4.1205e-05
3.33199e-06
-4.79276e-05
0.00134939
-0.000410318
-2.91087e-14
2.25377e-14
0.000239649
-5.82337e-12
0.000417219
3.2067e-09
-5.9023e-08
3.25085e-08
8.27375e-07
5.23702e-06
-1.75619e-05
-1.16468e-05
-1.05674e-12
0.000931202
-1.76084e-05
-1.04468e-09
-3.18919e-09
1.52737e-06
-1.44429e-12
0.000445204
-0.000572123
6.81647e-08
7.60995e-05
-3.00878e-06
5.07645e-05
-5.27423e-05
1.42461e-16
-9.22524e-16
1.63982e-15
1.84276e-05
2.90307e-05
1.46117e-12
-1.454e-12
7.4713e-12
0.000231454
1.23588e-08
7.49946e-08
6.80875e-07
3.1954e-06
-1.07609e-11
3.08899e-16
-3.94191e-16
1.4956e-06
4.51149e-05
1.23464e-08
2.10777e-09
-5.44425e-09
1.6095e-07
-4.79064e-10
-8.56759e-08
-1.44398e-15
2.19447e-06
3.46755e-05
-6.77085e-05
0.000393145
-0.000397382
-3.17248e-10
0
-1.26812e-08
-1.04198e-07
2.4859e-08
-1.6205e-08
-2.08123e-10
1.98838e-09
0.000890806
-0.00042787
-1.54368e-05
0.000317657
3.98836e-13
-1.51581e-11
0.000462303
6.2474e-16
-2.41453e-15
-0.00065258
0.00143672
-0.000784142
-2.40917e-08
2.25435e-08
-0.000247999
0.000637515
-9.15449e-16
5.75584e-17
1.74734e-06
-1.61965e-08
-6.92077e-14
-8.09427e-11
-1.77319e-13
1.46003e-08
4.69955e-09
0.000321483
5.40394e-09
1.35594e-06
-7.57174e-05
0.000524987
1.90953e-08
6.40053e-08
-1.02543e-10
5.74808e-15
-3.91752e-14
-9.96105e-07
0.000271665
-4.49812e-08
4.58459e-09
5.89001e-05
-3.72962e-05
3.34672e-05
1.45421e-05
-3.30382e-10
-6.04223e-09
0.000235808
-0.000310574
1.00005e-08
1.46883e-08
-2.72263e-09
-1.11776e-16
-1.79662e-05
4.98421e-07
-0.000203813
-1.46115e-14
1.77674e-14
-1.57039e-15
1.70166e-07
5.14359e-05
-6.68861e-11
1.35277e-09
1.56208e-07
2.6508e-05
1.12173e-07
9.27818e-10
3.36351e-10
-4.42517e-10
0.000762934
-0.000185525
3.42496e-06
-1.71359e-13
-7.10085e-13
-2.81986e-07
-0.000491817
-0.000549625
7.24061e-17
-1.25965e-16
0.000298346
9.50165e-05
2.06847e-05
0.000610674
3.39906e-09
8.4135e-09
1.5275e-14
-6.68065e-15
9.87582e-14
1.17245e-07
0.000373695
8.14212e-08
6.89464e-07
2.11019e-07
-2.06065e-07
-2.38962e-08
-4.00607e-11
2.42959e-11
2.57003e-08
-1.12553e-08
-3.57476e-09
5.64953e-09
5.59069e-17
-5.88211e-16
4.98096e-13
-6.43512e-11
7.62172e-06
-2.08346e-05
1.73876e-06
1.72171e-12
-3.32167e-12
0.000585962
-0.00065534
-6.77752e-15
0.000739926
0.000744593
-0.000476683
1.93269e-14
-2.04066e-13
-7.66834e-13
-5.23796e-13
-4.21281e-10
9.73385e-10
1.45118e-07
-9.46165e-07
0.000114838
-2.75492e-05
9.00987e-09
-2.58152e-17
1.95782e-05
0
7.29387e-08
-1.71322e-07
-1.21852e-10
8.65803e-05
-2.79739e-14
0.000896023
-6.55327e-05
-0.000766739
-3.59282e-10
4.78358e-05
0.00036336
6.27419e-05
-3.63103e-05
-1.19461e-07
0.00054686
-6.8379e-05
3.58591e-08
-2.06352e-08
9.27711e-08
-1.51225e-08
-8.38079e-17
-9.10307e-06
5.55971e-08
1.22215e-07
-4.344e-09
3.81201e-07
1.02282e-06
-3.56523e-13
5.51396e-14
2.9862e-05
3.46657e-05
6.64017e-15
-2.03157e-14
-8.89011e-11
-4.17012e-10
-1.77345e-08
5.01668e-09
-1.006e-08
7.2945e-09
8.8715e-16
-4.48407e-16
3.20465e-06
-7.49992e-06
0.000809028
-8.01428e-06
4.68931e-09
0.000629026
-0.00033154
5.59005e-08
1.11995e-07
-1.36912e-08
4.96798e-09
1.47924e-08
5.28711e-10
-6.24875e-12
0.000783603
-0.000426944
9.25426e-10
1.27775e-07
2.09561e-12
-1.81601e-12
-4.38951e-17
-0.000171305
0.000626793
-6.22521e-18
0
4.25661e-12
-1.27974e-06
1.33815e-06
1.66327e-08
1.92476e-08
-2.2393e-06
2.66052e-08
-5.16221e-09
5.05185e-09
4.48304e-06
7.64434e-08
9.53151e-07
0.000299999
0.000119669
-2.52243e-05
3.81306e-11
-5.90791e-08
2.00628e-05
-5.00503e-07
-2.77971e-12
0.000249116
5.47547e-05
1.41409e-08
-6.27177e-14
1.76044e-13
-3.55147e-12
5.82585e-16
-6.23445e-18
6.52992e-09
4.76375e-07
1.1423e-05
4.74527e-06
4.08174e-06
0.00021246
-7.11789e-14
-4.82981e-09
-0.000216935
1.70909e-05
-0.000263876
0.000759527
-1.4572e-10
-3.63102e-09
0
-1.96107e-11
3.26211e-05
-3.91891e-06
6.586e-10
2.57432e-07
2.10287e-14
-6.09113e-14
6.31213e-17
-3.24304e-18
-4.79413e-18
3.31169e-06
3.25865e-08
3.9737e-08
1.46214e-08
2.45054e-08
2.08248e-06
-1.1644e-05
-4.7023e-09
-3.85947e-06
5.20474e-11
2.45729e-09
-4.12104e-10
8.19326e-18
-1.05088e-18
-4.52627e-16
1.06006e-07
1.54286e-05
8.23543e-14
-8.35373e-14
3.36312e-06
8.34684e-08
0.000177164
6.11245e-08
-6.25951e-08
3.08758e-09
0
-9.98077e-07
-4.53391e-11
2.70118e-08
9.1338e-06
4.95029e-07
0.000558412
6.52934e-05
-6.6537e-09
2.85788e-07
-6.53969e-09
-0.000745935
0.000305271
0.000739708
-0.000456852
0
6.27205e-07
2.75146e-05
-4.92339e-07
1.08365e-07
1.89054e-09
-2.56768e-18
7.05546e-18
-5.24557e-17
3.89403e-05
-3.42648e-08
-3.57694e-12
1.3696e-09
-1.12183e-10
4.57142e-11
-4.53485e-08
6.51338e-08
-2.85781e-13
-8.34851e-15
1.36062e-06
-5.1294e-06
9.76941e-06
-8.80221e-07
-4.24636e-10
7.49699e-09
4.78729e-06
-7.86492e-07
4.71521e-06
1.17388e-06
1.85934e-11
-2.35265e-10
-3.26136e-05
0.000420881
-1.01335e-10
0.000101226
3.90209e-10
-4.74352e-06
6.53613e-06
0.000486737
-0.000514825
-3.05581e-18
8.72511e-13
4.00009e-13
8.60517e-08
-1.34329e-18
4.03023e-08
7.24725e-07
9.66707e-07
8.33966e-06
5.42886e-16
-3.21573e-16
3.46643e-07
-1.32315e-06
5.3939e-06
3.70664e-07
0.000854758
8.43988e-14
-2.13338e-13
-1.12294e-07
-1.0957e-06
6.80407e-07
-9.8115e-07
-8.24322e-07
5.67528e-06
1.1743e-08
5.0527e-06
-4.64878e-12
6.80919e-14
4.08599e-08
-3.26389e-12
-4.76054e-13
3.2157e-11
-4.31247e-10
7.11241e-19
-4.9342e-18
-2.12293e-07
0.000734635
-1.4556e-05
1.92819e-10
2.83678e-06
6.73811e-07
-2.47642e-12
1.40242e-10
-5.00414e-15
2.80454e-06
-4.74043e-13
1.46825e-13
2.47332e-07
-7.11813e-10
8.78605e-11
-2.14307e-15
-1.69272e-17
-2.40844e-11
3.04645e-08
2.42081e-08
-3.14366e-10
1.98979e-10
-1.06189e-09
1.8533e-08
1.94088e-06
-3.50909e-07
2.04299e-18
-7.00862e-18
-0.000954805
-0.0002246
3.22755e-11
-2.25101e-13
0.000244664
-3.56207e-09
1.35195e-06
-5.97799e-13
-1.48953e-12
7.28642e-07
4.61028e-08
2.60202e-08
1.38744e-08
0.000902063
-0.00034109
3.77391e-15
-1.22827e-14
1.69202e-06
-1.69197e-06
3.48488e-17
-4.85553e-16
-1.39417e-19
-1.66878e-10
7.61423e-06
-3.88768e-05
-2.43007e-07
2.24684e-07
0
7.24952e-07
1.50418e-08
1.32775e-06
3.35139e-07
6.68365e-07
-1.67669e-07
-8.10383e-06
4.46099e-06
1.36742e-06
-2.12004e-10
-1.75571e-13
2.03801e-10
1.2359e-09
3.87909e-16
2.53982e-07
0.000514895
-3.58174e-08
1.44662e-09
-1.10529e-17
2.46694e-06
-1.04443e-06
7.78851e-06
-6.19935e-10
8.65735e-08
7.62169e-07
-8.82277e-08
-4.01495e-10
5.02193e-11
-3.68028e-10
-1.05747e-10
2.65697e-06
-1.97027e-08
9.75664e-09
-5.50869e-09
-1.10687e-11
1.19661e-10
7.36364e-06
2.54898e-08
3.4283e-07
3.52506e-06
1.59261e-06
5.15219e-11
9.63617e-13
-7.27981e-19
2.25994e-06
7.44108e-08
-3.53663e-06
1.17886e-08
1.04979e-09
-1.53296e-13
2.1096e-18
-5.83033e-18
2.31286e-06
-3.05422e-10
0.000362395
-0.000412386
-2.07989e-06
-2.97056e-11
1.12209e-10
4.48847e-09
0
6.37485e-07
1.47999e-18
-2.49178e-18
8.08903e-05
-2.94631e-06
-5.33139e-09
-2.58201e-19
-4.93964e-07
-3.26958e-06
2.48207e-07
-1.24844e-11
5.84751e-12
6.31756e-07
1.97652e-08
-2.33247e-13
-1.54059e-14
-7.16427e-13
-1.03728e-06
1.0336e-06
4.36023e-06
-3.82925e-06
3.58097e-06
-3.89554e-08
6.22292e-06
-1.06411e-06
0.000423582
-0.000112983
-0.000310599
5.3726e-16
-5.75182e-15
4.51601e-09
4.92329e-07
-1.91578e-07
1.46367e-10
2.59324e-07
-5.70011e-09
2.22331e-12
-2.5562e-11
-2.2665e-12
3.90098e-08
7.06077e-18
-1.09467e-17
3.0933e-08
7.19692e-10
1.96e-06
3.63706e-19
-3.89091e-19
5.05781e-11
-2.82642e-11
-1.40632e-09
1.19517e-09
0.000979631
-3.18131e-12
1.88516e-14
-1.02762e-10
3.20968e-07
3.63622e-09
1.31878e-07
-3.83985e-17
-8.70404e-11
5.54096e-10
7.54024e-12
1.00837e-10
4.27306e-06
0.000274372
0.000149211
0.000262339
-5.11745e-07
6.72625e-06
7.02472e-07
-8.47649e-12
1.20665e-12
-1.48608e-10
3.32961e-05
-3.57403e-05
-1.21497e-17
-4.44233e-06
8.60862e-06
-3.36668e-19
8.5379e-08
1.11692e-08
-3.95955e-06
-2.28754e-06
4.56775e-06
-1.45344e-14
4.00727e-16
0.000532457
0.000289664
8.96809e-18
-3.1188e-17
8.38383e-06
-1.7746e-08
-0.000273665
4.74438e-06
0.000313603
2.63023e-07
5.24653e-06
0.000139895
3.41936e-06
-1.17279e-10
6.37759e-07
6.35527e-07
5.56378e-12
-6.09447e-13
1.06881e-06
-7.62563e-07
-3.38109e-20
-2.68621e-21
2.66003e-21
2.71339e-23
-2.06096e-11
-0.000596295
0.000530543
-3.21201e-10
2.1631e-09
4.02473e-09
8.95063e-12
-1.28072e-19
0
-8.12632e-07
-5.84395e-10
7.31939e-11
-8.10545e-07
-1.66135e-06
-0.000202169
0.00032316
7.53266e-09
-1.7571e-09
2.1475e-09
-5.77342e-15
9.22951e-05
-0.000584112
2.15082e-06
1.15744e-09
-7.49493e-10
9.20312e-09
4.1461e-10
-2.95318e-08
3.65359e-19
-3.86556e-20
7.2488e-07
2.32765e-08
5.53673e-10
1.41675e-06
-2.17035e-06
-1.77274e-09
1.96749e-08
2.40025e-09
1.63218e-10
1.21929e-08
-1.09494e-08
-1.09087e-05
9.17964e-06
6.50273e-09
-2.66923e-05
0.000456561
2.5112e-06
-8.88376e-12
0.00104393
1.12402e-14
-5.71397e-14
4.01446e-11
3.55232e-07
9.29291e-10
-5.19922e-11
7.39984e-13
2.59836e-18
-2.95585e-18
-3.95312e-06
3.00503e-06
4.88232e-05
2.98786e-11
7.31397e-12
-2.23374e-11
-3.20778e-07
-1.78191e-10
-7.5706e-11
1.06141e-12
-5.92576e-12
0.000212797
5.66533e-10
-6.18578e-14
4.66643e-13
-2.15939e-14
5.68994e-07
-1.67826e-08
2.00488e-07
-7.47167e-21
-3.52203e-16
-1.06601e-11
-3.4562e-15
1.45919e-11
-4.35713e-10
-2.67933e-13
1.4544e-12
-0.000479062
1.40068e-05
-6.5274e-06
-2.25983e-10
2.12488e-11
1.03721e-18
-1.09772e-18
4.89786e-11
3.21518e-06
-1.94953e-06
5.47041e-06
-5.44227e-07
1.61562e-10
5.04319e-12
-3.28463e-17
4.3774e-17
-1.2224e-16
0.000378204
6.23208e-19
-1.73691e-17
-1.24922e-12
3.79647e-12
2.19464e-09
4.41424e-10
-3.68707e-06
4.65951e-06
-3.26897e-11
2.08085e-12
1.07273e-06
6.88887e-07
-1.26095e-06
1.14162e-12
-6.65474e-13
3.0139e-08
-2.08815e-10
2.28301e-12
1.77842e-11
-5.76639e-08
5.22982e-06
-1.4635e-18
1.66108e-09
1.14175e-05
-6.0026e-06
3.73954e-08
1.92896e-10
-1.46717e-05
1.56839e-07
6.77745e-20
-7.12678e-20
-1.91627e-12
6.84556e-12
2.50329e-07
-2.44647e-07
-1.76114e-07
1.03223e-06
4.02648e-06
-9.16742e-18
-7.17593e-06
3.65057e-06
3.88151e-20
-1.68047e-19
0.00138973
-0.00138978
4.56769e-13
3.68247e-17
-5.18171e-17
-8.51267e-09
4.35568e-09
3.1337e-06
1.11529e-07
0.000542457
-2.26322e-13
2.06786e-14
-8.84579e-09
1.47532e-08
-6.2039e-06
1.00862e-05
2.32631e-14
-4.56184e-06
5.95847e-08
-4.90087e-08
1.07537e-10
5.66989e-11
-1.63465e-18
-5.83297e-06
1.56219e-11
-7.39135e-11
1.59806e-13
-5.54351e-12
3.74061e-11
-7.7837e-13
7.29535e-15
4.22767e-17
-6.46307e-17
4.40329e-06
-1.02022e-09
1.64525e-12
1.87721e-09
4.9371e-11
7.26479e-13
-2.54992e-14
5.69052e-07
-6.87106e-12
8.75534e-14
3.54359e-07
8.91747e-12
4.67765e-12
-1.38538e-21
4.6671e-14
-4.33778e-14
2.73684e-14
-9.68125e-16
-3.3329e-11
1.81551e-10
4.45393e-10
-4.39032e-19
-7.19474e-13
-4.63154e-06
-0.000545562
-6.40988e-10
-3.12725e-09
2.90547e-09
1.80958e-13
9.54189e-08
0
-4.28487e-10
-9.22571e-10
-9.71579e-07
1.80075e-06
2.20273e-08
-5.57285e-14
1.89366e-09
5.85395e-07
-1.66616e-10
1.85865e-09
3.11497e-20
-4.52741e-20
-0.000303648
0.000327749
2.11488e-09
-4.5029e-09
1.37129e-13
-1.81995e-13
-1.92191e-16
2.05929e-16
-9.84294e-16
-1.3358e-05
1.19539e-05
1.16146e-14
-3.73086e-07
0
5.16967e-11
6.4212e-12
-1.95854e-15
4.12174e-13
-5.96344e-15
2.06361e-17
-1.44486e-07
5.96733e-06
2.71227e-08
-1.31383e-11
2.51488e-13
-7.62415e-13
2.76956e-13
3.39283e-08
0
-2.5765e-11
-5.82081e-07
1.89878e-09
-4.08302e-18
6.47888e-18
-7.30821e-18
5.66801e-18
5.57924e-08
-2.04902e-08
2.68172e-12
-1.37153e-08
1.74989e-12
6.8399e-17
-6.96451e-17
2.02122e-18
-5.32269e-07
-1.72172e-09
1.62873e-08
9.86234e-07
0.000412691
-0.000413677
1.3227e-19
-1.81338e-18
2.98403e-12
-9.63347e-21
4.35368e-11
-1.13763e-08
8.2117e-12
-7.34052e-07
-1.79519e-06
7.5865e-07
6.41697e-15
-1.7307e-15
1.10226e-11
-1.2981e-11
0.00129097
-3.14562e-06
4.37342e-06
-1.86807e-15
7.28733e-15
-3.91214e-09
2.92474e-09
3.61178e-17
-3.71081e-17
-8.60751e-13
8.60761e-13
-3.75057e-21
8.6783e-10
2.23883e-16
-8.84013e-19
-1.69025e-11
7.46205e-11
1.79122e-12
1.62657e-12
1.15569e-12
-1.62443e-05
2.08421e-06
4.95639e-14
-1.11923e-14
2.62879e-10
-4.97389e-15
3.36264e-14
5.58807e-06
-5.68326e-07
3.40722e-16
2.01983e-13
-2.62739e-06
8.15833e-07
5.03801e-05
0.00040631
8.12325e-21
-9.35754e-21
-2.93413e-14
1.18495e-13
1.42217e-11
1.01181e-11
-1.17156e-15
1.33616e-15
2.20261e-08
-2.13752e-12
2.55919e-11
-1.55663e-08
3.86672e-08
-7.62666e-06
7.94626e-06
2.71287e-14
1.79804e-17
-9.80538e-18
-6.73833e-14
2.82081e-13
-4.89368e-18
-3.43069e-07
-6.44416e-08
-3.00057e-09
2.83798e-10
-1.30376e-09
4.03757e-08
-1.51695e-06
5.89732e-07
-4.89046e-09
-2.80971e-06
-1.25973e-07
2.33736e-09
1.18365e-14
-3.2361e-16
-2.47511e-13
1.91235e-12
-4.07147e-07
4.05752e-07
5.07626e-09
-3.17073e-09
3.5793e-10
0.000378761
-5.52926e-05
-0.000213334
0.000333851
3.79547e-16
0.000201284
1.4006e-09
-4.06783e-20
-1.79155e-12
9.6122e-12
3.45706e-16
-1.08934e-17
-8.34306e-15
4.16471e-16
3.6154e-06
1.39942e-06
0
1.52326e-14
-3.42422e-09
1.89373e-13
7.47531e-14
7.05814e-15
-1.25049e-07
1.19221e-15
-6.25076e-07
6.44306e-08
-1.08301e-15
2.04536e-15
-8.13636e-15
0.00027749
0.000101285
-9.10768e-12
8.64043e-11
4.32711e-14
-8.74918e-07
1.27818e-07
2.52385e-11
-8.98876e-11
5.41261e-18
3.31411e-18
-1.24126e-17
1.79453e-12
-7.32571e-09
1.16511e-14
-3.80863e-08
2.89322e-08
3.14546e-13
-8.28552e-13
-4.73656e-09
1.17954e-10
1.34759e-14
0.00104969
-6.38034e-18
1.42873e-18
-1.42259e-18
3.39764e-12
-3.09582e-12
1.19848e-14
3.43487e-09
-1.32312e-09
-3.24406e-12
0.000491304
2.37144e-05
1.63656e-16
-3.71506e-20
2.6609e-08
-5.76523e-17
1.73632e-18
7.34504e-17
4.74647e-14
-1.80495e-14
0.000383985
1.48414e-10
3.35814e-16
-1.3279e-17
-7.20845e-09
3.73405e-11
1.8224e-10
-5.25166e-08
-4.22684e-07
7.371e-08
8.63809e-21
-1.4226e-20
-6.09851e-06
1.54036e-06
-6.21337e-08
4.44176e-13
2.17587e-13
-5.20453e-11
1.87993e-12
3.37632e-14
6.63681e-15
-8.36328e-11
4.18999e-10
3.62841e-13
2.55699e-11
-4.69318e-09
-1.37871e-10
1.64774e-10
8.21944e-17
-3.16241e-17
3.52713e-08
-8.98504e-08
2.56858e-18
-3.69105e-17
1.80168e-16
-4.72146e-06
3.16108e-15
-2.27618e-19
-7.11833e-08
4.77179e-09
-2.28704e-08
7.65014e-09
-3.40762e-22
4.3819e-15
5.25833e-16
-1.36136e-07
8.64625e-09
3.29523e-15
1.26645e-12
-1.61298e-16
1.14731e-15
1.66262e-09
1.39162e-09
-7.68644e-13
9.37733e-18
3.49363e-18
-2.4958e-07
4.81277e-08
-1.08532e-15
3.74197e-15
-5.17052e-11
5.84674e-09
-4.53661e-09
6.47023e-12
-1.33232e-11
-1.91795e-15
8.38903e-15
-4.83628e-05
1.24404e-05
-2.30816e-17
1.42618e-17
-7.66554e-19
7.64555e-17
-2.84095e-17
5.54723e-19
-1.99773e-19
1.34328e-11
-8.62925e-09
-6.68838e-09
2.62422e-10
-7.14778e-15
4.94087e-14
2.00985e-07
-3.33182e-07
1.07305e-13
-6.589e-14
-5.37854e-09
3.88285e-09
-4.13112e-10
3.45252e-10
7.29998e-13
-9.59079e-10
6.18022e-11
6.31603e-15
8.83214e-16
2.90068e-18
-4.69416e-14
2.4144e-13
-1.62811e-16
8.78878e-16
-1.1348e-14
2.84946e-14
-7.47424e-08
1.2241e-08
-7.1071e-18
4.48564e-19
6.49785e-18
1.66311e-16
-3.617e-18
1.54687e-07
-9.19669e-09
3.46897e-07
-2.65394e-08
-1.24874e-09
6.93771e-16
2.69683e-08
-3.66274e-10
-2.25458e-21
-1.18905e-15
1.96251e-12
2.44596e-14
-3.40897e-14
4.35563e-18
-5.9606e-09
1.54414e-09
2.20968e-08
8.78184e-20
-6.2197e-08
9.14002e-09
4.50382e-16
2.51492e-17
-1.02227e-16
2.26324e-05
1.09132e-12
-9.73904e-13
2.15854e-17
-1.79433e-15
-2.77817e-20
-5.77938e-09
3.76611e-10
-1.96908e-10
-8.66079e-09
1.30863e-09
1.73249e-16
2.7341e-18
-7.55421e-11
1.10218e-19
1.73094e-20
-1.0433e-19
-9.48465e-18
1.64883e-17
2.31761e-16
-6.9981e-10
1.2196e-18
3.67267e-18
-8.61158e-20
-2.34422e-13
1.40954e-12
2.03905e-16
-2.17222e-16
-3.43984e-10
1.72733e-10
7.78659e-16
-2.96055e-09
3.08081e-08
3.47508e-05
5.2284e-05
-0.000100486
9.37052e-14
-1.35773e-22
-6.45424e-10
-3.36482e-07
3.22988e-11
-4.42834e-11
-1.0717e-12
1.0562e-13
-8.76211e-17
2.0684e-10
-5.97079e-11
7.09895e-05
0.000313088
4.33921e-11
-2.02341e-10
-1.80118e-08
1.39704e-16
-9.21025e-17
3.829e-13
-3.35093e-05
-0.000186469
0.000219631
4.33216e-16
3.09181e-17
1.70134e-12
7.70157e-21
-6.45568e-21
2.59203e-15
-2.73166e-12
-8.27334e-17
2.39356e-18
8.27967e-19
3.54205e-17
1.01859e-08
1.88761e-12
-2.50468e-12
-0.000339459
0.000284178
-3.33063e-13
6.57067e-10
8.82113e-12
1.00134e-20
-9.54472e-09
8.90546e-10
3.64504e-17
6.74473e-10
-1.74775e-09
-3.81439e-19
7.96316e-19
-6.28493e-20
8.77261e-19
-1.41191e-12
2.92238e-12
-1.05761e-08
1.4115e-09
-1.41368e-09
2.20977e-10
7.23806e-17
-5.44142e-17
-5.10586e-19
3.53108e-18
-1.39089e-10
-5.35423e-06
5.36288e-08
-5.56368e-08
-6.7753e-09
8.3559e-10
0.000515466
-0.000423171
-1.16282e-11
-3.35409e-18
2.23636e-17
8.86875e-20
-3.07719e-21
6.72156e-12
-1.09665e-09
2.41358e-10
2.97048e-13
6.17571e-19
-2.76221e-19
6.19405e-11
-1.83402e-13
-2.17982e-17
6.41633e-17
-9.57815e-11
1.08743e-11
0.000269759
-0.000268773
-3.46268e-21
8.77429e-09
-1.17909e-08
-4.42901e-17
1.78074e-16
1.44278e-10
-1.98983e-12
1.00235e-16
-5.40091e-18
-1.01391e-10
-3.73889e-05
0.000541699
-8.41548e-10
1.21314e-10
5.06492e-15
1.97943e-16
-3.37808e-16
-4.63154e-06
2.12853e-08
-9.17878e-10
-9.89823e-13
-1.61038e-16
8.43576e-16
0.000477313
-5.86256e-11
1.2823e-18
2.86139e-22
1.01067e-17
-7.98111e-19
4.04927e-18
-2.90315e-12
2.07117e-12
1.81233e-09
-4.37642e-14
3.03939e-15
-1.01399e-10
-1.18389e-08
1.63062e-13
-9.15506e-12
4.58904e-19
-2.29946e-19
2.00103e-12
3.20808e-20
3.16408e-12
1.21163e-08
-7.41364e-10
2.43938e-13
-3.06025e-13
-6.93621e-18
7.79799e-19
6.25454e-20
-7.44202e-10
1.05207e-10
-8.15473e-16
2.83512e-15
4.7533e-12
-9.94245e-12
4.36587e-20
0.000530915
2.32676e-11
6.99474e-20
2.12674e-10
2.24663e-19
1.34957e-11
-8.0737e-12
0.00013188
2.12833e-19
-7.78869e-19
0.000380276
-0.000102785
0.00102827
-0.000512804
4.95023e-13
6.64217e-10
-1.30318e-11
1.94796e-18
0.000267293
1.07532e-14
3.05137e-21
-3.04704e-21
-6.75368e-23
-1.48136e-20
8.37807e-19
4.35571e-18
2.58424e-20
-2.80141e-14
-1.54977e-10
2.29771e-11
9.64979e-22
5.73726e-18
-1.4786e-19
1.49287e-20
-2.86287e-22
5.12152e-21
-2.44148e-21
-1.32517e-11
1.70832e-12
-7.62745e-12
-1.51737e-12
-8.30122e-19
3.95005e-18
4.34419e-20
2.17725e-16
-3.64409e-15
8.36278e-12
-1.96257e-12
1.34361e-10
-1.7863e-10
-3.33478e-20
4.85249e-19
2.55771e-11
4.40182e-19
-1.05483e-19
9.70848e-10
-8.97926e-12
-1.22554e-10
2.42593e-11
6.56554e-13
-6.72067e-13
-8.09749e-14
1.81387e-10
-2.587e-11
1.39801e-17
4.27329e-13
0.00058872
-0.000318962
7.85281e-15
6.58326e-24
-1.13499e-10
1.37503e-11
-1.5446e-12
-1.88287e-09
6.77309e-11
-2.77902e-15
6.51597e-15
5.58779e-11
-9.7877e-13
9.74463e-14
0.00016555
-4.81908e-11
3.44848e-12
2.6107e-11
-6.33122e-13
2.59267e-22
2.04833e-13
-4.74008e-19
1.40786e-20
-1.16511e-11
2.12644e-12
8.80723e-13
1.39335e-11
-5.57665e-15
-5.05118e-16
1.57922e-17
-6.44e-13
2.90535e-22
-6.91573e-24
1.78903e-10
1.57668e-12
7.09475e-14
3.38242e-19
-1.26528e-23
-1.14246e-12
6.40285e-13
-2.15327e-13
4.10959e-13
3.13929e-17
1.83991e-11
-6.43803e-11
1.03198e-15
-4.15351e-16
1.63678e-23
2.01815e-12
-2.13981e-14
-2.92931e-12
1.15261e-21
8.53286e-13
-5.10987e-11
-8.0633e-19
1.56367e-18
-3.01276e-18
-3.23042e-20
-7.20278e-11
1.84111e-11
-1.52792e-15
-0.000171421
4.94467e-20
-4.19365e-13
1.66036e-12
1.16899e-12
-9.31183e-13
6.06535e-15
0.000554663
5.02683e-14
-6.46872e-15
1.30245e-14
-8.71988e-14
-3.4774e-12
1.17429e-12
4.23432e-13
-1.28379e-14
-1.85227e-12
3.72897e-13
-8.96143e-21
5.63091e-20
3.37092e-05
-1.35565e-19
7.59614e-22
0.000211375
-0.000480148
6.42901e-15
-1.40834e-21
-1.67933e-12
3.02665e-13
-9.08508e-12
1.41416e-12
8.96384e-12
-1.11569e-13
2.26797e-13
-5.00099e-14
-1.7089e-13
1.23034e-13
6.90443e-11
-9.83314e-13
-4.69677e-08
-8.12104e-13
-2.5764e-14
0.000467718
-0.000256343
5.04168e-13
5.01556e-25
-9.9798e-15
-2.60318e-21
1.65232e-20
6.57523e-24
-9.42204e-26
-3.57196e-21
2.17141e-20
2.49908e-14
-3.31718e-14
-3.22894e-20
2.59884e-21
-0.000205776
-0.000345107
0.000242322
-5.4807e-21
3.06892e-20
-2.12422e-12
1.12391e-13
0.000512804
-0.000347255
9.50393e-15
-1.06009e-13
1.3808e-14
-0.000217264
0.000211932
-8.6822e-21
5.32202e-20
1.29379e-14
-7.64381e-15
-1.82119e-20
1.98589e-19
2.02881e-20
-0.000425465
2.72133e-05
0.000400711
-8.88874e-20
1.86248e-18
1.68188e-17
-0.000122849
7.43444e-05
5.5949e-17
1.68642e-12
6.98803e-15
-9.54576e-19
3.6707e-18
-5.749e-11
7.73314e-12
3.35222e-20
-6.40855e-22
3.12636e-16
-4.30646e-13
-1.6874e-12
1.52157e-12
-6.86916e-16
-1.3228e-13
4.18561e-14
6.97466e-14
-6.68407e-14
4.35596e-06
-5.95655e-05
2.86779e-05
1.38083e-12
-1.84977e-12
1.45256e-20
-1.23705e-20
1.2517e-13
-1.31676e-12
-6.09292e-05
5.12545e-14
-1.22595e-15
4.34782e-18
-3.71375e-18
2.03944e-12
6.89251e-23
0.000230443
0.000148756
-1.63501e-18
1.31869e-17
-5.94358e-14
2.22784e-15
-2.3112e-14
1.71196e-13
-6.74695e-15
8.29878e-16
1.174e-15
8.89577e-27
9.76231e-15
-1.20813e-15
5.57488e-15
9.01799e-20
-1.98419e-13
2.05195e-14
9.53851e-26
-9.67506e-26
-7.3883e-28
6.50587e-15
-9.91162e-17
1.82312e-21
-3.45238e-21
2.22044e-16
-3.17971e-14
4.25823e-15
-3.47331e-15
1.23103e-13
-1.16863e-13
4.5294e-20
-2.37394e-22
-1.10843e-12
1.38328e-13
-1.2098e-13
9.21216e-15
1.0417e-21
-3.07319e-24
1.26556e-15
-1.72638e-15
-1.63504e-14
-5.87203e-21
-1.46134e-15
-5.02843e-16
2.01241e-17
8.39461e-13
-1.41726e-14
-7.49881e-18
2.99849e-17
-1.30933e-15
-5.06756e-13
1.26508e-13
-1.19393e-15
1.474e-23
-8.62252e-26
2.05912e-12
-1.23478e-14
-1.19425e-17
-8.0108e-15
7.26606e-15
9.13092e-16
5.84507e-24
-5.15169e-15
-3.46595e-12
7.07066e-13
1.2429e-13
-3.98325e-16
0.000215198
-0.000420974
8.59214e-14
0.000382701
-0.000167503
-9.32339e-14
8.31176e-29
1.05969e-17
1.69993e-14
1.43613e-16
-1.19889e-16
-1.15164e-14
2.1915e-15
0.000347255
-0.000198498
1.26402e-14
5.6961e-16
1.2163e-15
-4.89204e-17
0.000126358
-1.41262e-21
6.6155e-24
6.99961e-05
-6.94595e-05
2.23445e-13
-8.79521e-14
-5.21439e-17
-2.63725e-15
-0.000153681
-4.05332e-18
1.56804e-19
-6.95102e-19
4.48833e-25
-1.41999e-27
3.57972e-15
-2.68632e-15
6.60711e-22
-3.57399e-24
1.02267e-13
-6.3861e-16
4.24235e-15
-6.71393e-16
7.49976e-18
6.95521e-16
-6.40186e-17
8.7584e-25
-1.9034e-20
7.19646e-21
-1.69187e-17
1.89328e-17
1.46993e-14
-2.98114e-17
-2.41291e-20
2.71262e-20
-5.85523e-15
1.21175e-15
-0.000331282
0.000177601
-3.42103e-15
5.25373e-16
-0.000211931
0.000151002
4.50881e-15
-4.09631e-15
7.28089e-15
-1.71779e-14
4.66444e-15
1.83564e-16
1.74599e-16
-7.01004e-18
6.44647e-16
5.05477e-17
2.55431e-20
-3.74933e-21
7.86355e-27
-1.38337e-29
-4.80207e-17
2.47094e-06
1.54437e-17
-2.65552e-16
-8.12583e-16
8.04692e-17
1.73629e-15
-3.52834e-16
-3.5837e-17
0.00041749
-0.000104393
-0.000422064
-1.28401e-15
1.57564e-16
4.98208e-17
-4.33904e-17
6.87892e-15
-3.43841e-15
6.03993e-16
-2.26759e-15
-5.71371e-19
0.000198498
-7.21397e-05
-1.77625e-14
1.58756e-14
-6.31626e-17
2.45143e-17
-1.22857e-17
4.00254e-15
-1.46381e-14
3.26451e-15
7.33215e-29