/*--------------------------------*- C++ -*----------------------------------*\
  =========                 |
  \\      /  F ield         | OpenFOAM: The Open Source CFD Toolbox
   \\    /   O peration     | Website:  https://openfoam.org
    \\  /    A nd           | Version:  8
     \\/     M anipulation  |
\*---------------------------------------------------------------------------*/
FoamFile
{
    version     2.0;
    format      ascii;
    class       volScalarField;
    location    "0.45";
    object      alpha.water;
}
// * * * * * * * * * * * * * * * * * * * * * * * * * * * * * * * * * * * * * //

dimensions      [0 0 0 0 0 0 0];

internalField   nonuniform List<scalar> 
1924
(
0.0380908
0.000565375
4.60038e-05
0.000797413
0.00017892
0.000335504
1.3482e-09
2.10256e-06
1.33702e-05
6.07637e-07
6.88105e-06
6.68368e-08
0.997698
1.07923e-07
0.000972058
0.00148451
0.99695
5.17047e-08
0.215635
2.0185e-09
0.999804
0.66532
0.446662
1.82549e-09
0.654543
0.00593619
0.00560122
1.01113e-05
1.48006e-06
1.39547e-09
0.994031
0.522504
0.47323
0.876426
3.31037e-06
0.101144
0.208995
2.5526e-05
1.32067e-06
0.945374
0.0172758
0.999756
0.00912461
0.243279
6.22433e-09
1.48369e-06
0.00176098
1.00348e-09
1
1
7.1599e-07
0.999751
0.789305
-6.18537e-08
0.390332
2.12675e-07
0.0376979
2.28477e-07
3.45216e-07
0.000161187
0.00570607
0.00199206
0.000630731
8.13788e-08
2.88662e-11
3.26966e-09
1.76377e-05
0.571618
1.49183e-06
5.37405e-06
0.472792
0.00118006
8.1354e-08
3.49512e-10
9.90469e-13
0.0678483
2.38915e-09
9.89483e-13
1.00739e-09
6.43629e-05
5.87415e-10
0.0019044
6.79406e-09
0.999757
0.41415
0.110181
4.12098e-06
1.15572e-05
1
0.932793
8.21854e-06
0.00238652
0.101845
1.52277e-06
0.980535
7.7657e-13
1.00002e-08
5.35865e-10
3.08695e-05
0.0312576
0.00078435
0.996162
2.22529e-05
0.0022976
0.0645724
5.42128e-10
5.53927e-05
0.173273
0.000185005
1.55196e-06
3.94352e-09
1.49183e-06
1.56765e-05
1.45564e-09
1.0537e-09
0.986731
0.00148466
1.82454e-05
0.000170547
2.38042e-09
0.81118
1
0.999972
0.986428
2.46393e-05
2.43917e-05
0.0202564
9.89483e-13
1.50049e-06
1
1.11109e-09
0.0012838
0.113386
6.24305e-09
0.99926
3.11864e-06
1.89521e-06
1.81904e-06
9.98624e-09
2.68279e-06
4.10755e-07
0.000463968
0.016639
0.857105
0.00153978
1
0.16681
0.123778
0.00400944
5.07403e-05
0.00225532
1
0.0880147
0.00176099
0.000223541
0.0137017
1
1.05885e-06
1.10601e-09
0.0366037
4.18315e-10
0.39122
0.00170466
1
0.0105344
6.3485e-06
0.000216634
1
2.39844e-09
1.65546e-06
0.0804872
1.15481e-05
2.38171e-11
3.0959e-05
9.15357e-08
0.0424355
1.07979e-09
0.185093
0.00239994
1.69465e-05
0.0768785
2.0786e-06
5.428e-10
0.000216634
1
0.000326251
0.138526
0.00190439
1.35364e-09
4.18315e-10
0.129055
9.17036e-06
1.10638e-09
1.49123e-05
0.000364595
1
0.000333348
0.106429
0.0657191
0.778418
0.857915
0.000271687
0.000678787
8.99791e-05
0.000141433
0.0498615
8.99791e-05
0.842194
0.451307
0.0215025
1
2.29007e-05
4.13574e-09
0.00050782
0.0100081
3.79574e-10
0.000127007
0.0436189
8.99791e-05
9.77774e-13
0.0390344
6.22433e-09
0.000230727
1.24007e-08
8.69927e-05
0.000267581
2.33893e-09
1.96243e-12
0.000943445
0.611888
0.143174
8.03563e-06
0.0787675
0.0620265
0.000215197
0.0366956
3.92846e-09
6.21961e-08
0.00154891
1
3.07572e-05
0.0501842
7.2017e-11
0.575263
0.086718
0.978595
5.5104e-08
1.03578e-08
4.95566e-10
1.00296e-10
2.00886e-05
1
0.00154712
0.00176099
1.27596e-09
4.37266e-08
0.00743873
0.0539406
0.0224919
5.71257e-08
0.00900698
0.00143474
0.058891
9.27383e-10
0.519188
1.29662e-12
0.999751
2.36786e-11
0.392152
0.00924776
0.971735
0.00280179
0.280465
0.0526357
7.80604e-06
2.29797e-10
4.4461e-08
0.000138332
0.00176099
0.0749895
0.85823
1
7.3336e-06
0.000135496
0.580026
4.18315e-10
2.26099e-09
1
5.13819e-08
0.052524
0.000518017
1.31991e-05
1.37042e-05
1.554e-08
0.923188
0.254451
4.14757e-08
0.959
9.0984e-13
1.87224e-08
1
0.00176099
2.29061e-11
0.000967737
3.73527e-09
0.0455607
0.757265
2.18993e-11
0.0622105
5.05547e-09
0.995531
1.20555e-05
0.000251022
0.0141751
1.10577e-09
0.884373
0.0705689
1.95756e-08
1.52424e-05
0.0105332
5.51792e-07
0.96659
0.000136923
0.10608
0.0421372
1.016e-12
0.0875864
0.0444264
3.88559e-08
3.48286e-09
0.122307
2.68853e-05
0.00177344
2.95241e-09
1.12985e-12
0.00541553
7.7188e-06
2.58273e-07
0.000145016
3.09435e-05
1.9518e-12
0.00415787
0.19276
0.996296
1.84039e-07
1.95859e-05
0.695722
2.18811e-05
4.07353e-07
0.0432224
0.231767
0.00110305
0.0376723
6.85114e-09
0.998807
3.83545e-12
1
4.76959e-07
0.757954
1.6201e-13
0.00262803
6.91386e-08
3.28285e-10
1.02659e-05
0.508029
2.78602e-05
0.00740817
0.960498
3.89483e-05
1.24338e-07
2.45965e-11
0.00146499
0.0439997
8.7137e-06
0.0424657
0.281393
7.64591e-08
2.00409e-07
0.430606
1.95729e-05
1.94633e-05
5.00601e-11
0.0875864
0.00161798
0.894241
1.69392e-11
1.13568e-12
8.35479e-05
0.0658714
5.13403e-08
0.00390351
0.000484224
0.0423413
5.85244e-05
8.66245e-08
0.0204792
0.164414
0.0829549
1.1506e-09
2.75213e-05
1
2.97581e-13
0.996533
0.295029
1
7.75463e-06
1.33371e-10
6.40903e-05
0.435371
0.425415
0.00027891
0.000188719
-1.24291e-07
5.13788e-08
2.89522e-06
1.32929e-06
1.0567e-13
1.56282e-08
0.00893444
5.85617e-09
1.35515e-08
0.960693
2.56832e-10
0.996418
0.491605
3.18729e-11
1.24878e-09
1.40314e-05
0.00150618
0.0933394
7.71375e-06
1.00693e-12
0.0181975
6.1482e-05
1.24338e-07
0.0933394
3.06979e-11
0.46014
8.49493e-08
0.326033
0.581563
0.041599
0.000491239
0.935271
1.98263e-05
0.415196
4.48686e-06
5.89891e-13
0.0497344
3.6699e-05
5.38142e-07
0.000414048
0.000773669
6.34045e-11
0.022635
0.0247717
1.48748e-11
2.45147e-07
7.46258e-06
1.94633e-05
2.79698e-12
0.00479334
0.404844
9.35711e-06
0.995503
2.99357e-05
5.49146e-05
4.90541e-06
3.61087e-07
4.13653e-09
0.464255
5.6229e-05
3.45634e-09
7.32404e-15
0.738968
2.70652e-12
1.09001e-07
0.000292195
1.95049e-05
0.00288632
6.82975e-06
1.34872e-07
0.00963076
2.47543e-05
0.000919877
0.473491
0.0933394
1.21889e-05
7.55305e-05
3.01009e-09
0.489439
0.0569549
3.83649e-05
1.12519e-09
1.03207e-10
1.01674e-11
1.94633e-05
0.00423862
0.052353
0.0863381
4.62579e-11
5.11912e-07
0.842065
0.120566
0.996533
1.16316e-07
2.47711e-08
0.000974472
8.02373e-05
3.41623e-11
2.98203e-13
8.98248e-16
4.29275e-05
0.000461653
2.9344e-05
2.9344e-05
0.00514466
0.0417616
2.86203e-07
0.00737893
1.27586e-06
5.85607e-08
1.69934e-14
1.52927e-11
1.33643e-05
0.0356908
1.33191e-12
0.000308762
0.135489
5.31921e-06
8.14589e-07
0.000875538
6.71227e-05
0.00395458
0.991542
6.64235e-05
7.22115e-07
0.785087
0.656575
0.464255
0.000205966
0.0303028
1.13584e-05
1.52869e-13
3.00655e-15
0.0211393
9.22391e-06
8.13431e-08
1.98263e-05
2.32226e-10
0.00368488
0.0173645
0.000503614
4.01588e-06
0.000422079
0.00839032
0.00128421
9.20195e-08
0.78016
5.77106e-07
0.34329
1.27038e-06
0.06466
0.0179555
0.839217
0.173852
4.60436e-13
1.11109e-09
3.62955e-09
0.000125498
2.74626e-15
1.06411e-05
0.0001187
0.0131807
3.66507e-13
0.0021355
0.000776804
0.996533
9.11372e-11
0.000583766
0.00128699
0.00529427
2.00376e-06
0.00847423
3.03863e-10
0.000117483
2.95122e-10
8.69921e-08
5.09753e-16
0.002894
0.238314
9.08817e-07
0.00920052
7.29157e-09
7.7327e-07
4.50866e-11
0.000475845
5.5737e-10
2.28564e-05
2.72886e-07
1.22504e-12
1.37556e-09
7.0075e-06
8.32472e-08
6.2207e-06
0.00189915
0.00350552
2.93537e-15
0.665573
6.61217e-10
0.452873
2.5973e-06
0.00235771
2.83423e-09
0.000364555
2.28639e-05
6.02737e-06
0.993207
3.9861e-11
8.32288e-08
4.04806e-14
3.63152e-16
1.13736e-09
0.0484959
2.59836e-06
3.42198e-09
0.000238222
0.000224715
6.59576e-05
0.00213237
0.00883951
-9.6223e-06
4.71245e-10
4.2626e-07
2.58416e-06
9.55925e-13
5.81984e-05
0.998949
5.13919e-07
3.48086e-14
0.0116195
0.0180685
9.27764e-06
5.94403e-05
1.65025e-07
8.11764e-08
0.00231251
1.12202e-05
2.49134e-06
0.83128
1.03055e-07
0.018218
8.90062e-07
5.31921e-06
0.000391051
0.0182292
1.35171e-08
2.84852e-15
0.0001187
0.000254867
0.00272471
1.88617e-05
7.79828e-11
2.74626e-15
0.0178663
9.61802e-08
0.417478
0.00887918
4.86766e-08
6.60627e-06
4.70985e-05
2.12146e-15
0.064575
6.07305e-10
1.44553e-06
4.40287e-15
6.709e-05
0.00312647
7.01135e-08
0.000449463
1.20825e-10
1.68231e-10
8.70804e-05
0.00229791
0.112375
6.10237e-05
0.00807871
0.999999
2.2099e-13
9.17941e-06
0.00287799
2.6401e-05
2.90669e-07
4.78966e-06
1.61508e-08
2.78241e-09
0.000190834
1.06923e-14
3.06957e-05
0.000367187
3.43799e-16
6.69947e-08
2.2087e-07
0.996449
3.13542e-10
1.10183e-07
0.00127934
3.67194e-05
5.82533e-14
3.13283e-07
3.30495e-08
1.18087e-06
0.0114042
1
0.000316173
3.08695e-05
0.0182292
3.05362e-09
2.2633e-08
0.215409
3.63534e-13
0.00741027
7.67398e-15
0.000109186
0.00820247
0.707651
0.0357335
8.75946e-13
0.944889
1.7898e-14
0.0182292
1.299e-05
0.970907
0.000233231
0.00475695
0.214821
0.00868886
1.47462e-07
0.00021687
1.28856e-08
1.23561e-09
0.00513706
2.11025e-15
1.27637e-19
5.95346e-08
0.997482
1.12191e-06
4.58069e-05
9.0484e-09
2.88519e-15
0.00203463
7.92836e-08
0.00103249
0.914628
0.512333
6.02737e-06
2.86243e-06
4.46671e-12
1
0.00492131
2.47024e-07
2.39905e-05
5.06557e-06
7.93861e-16
0.000837118
5.59563e-06
0.000480785
6.77415e-06
8.11975e-07
3.94245e-06
0.00887918
4.03267e-06
0.99544
0.00231231
0.995857
1.78226e-11
9.24413e-08
0.000487736
5.21551e-06
1.4201e-08
1.00229e-09
2.73073e-15
0.00201685
0.163659
1.13014e-08
1.10626e-08
0.000403098
1.12358e-07
1.63472e-09
0.0468987
2.78833e-06
2.72193e-10
2.93856e-10
0.00286701
4.94548e-05
3.08677e-16
4.90684e-12
-1.76331e-09
1.08374e-07
5.55358e-10
0.0213482
0.947617
0.0920815
4.4385e-07
1.23621e-15
4.86014e-06
0.372941
0.00887918
0.0118886
1.05729e-07
6.6427e-09
5.25421e-14
0.816638
8.4019e-17
1.80199e-09
6.6237e-07
0.00786159
4.99861e-08
0.00379243
0.00048941
1.82275e-09
6.72065e-06
3.94371e-08
3.7659e-08
0.0050102
2.50638e-14
5.53035e-07
0.00807466
0.00332205
1.16887e-06
0.00439622
7.25725e-17
1.62569e-09
4.57689e-06
7.98215e-06
0.00437569
1.18614e-14
0.00816462
9.43176e-18
0.999873
6.82459e-11
2.40651e-13
2.57814e-05
0.00153998
1
4.61628e-11
1.32082e-07
4.47063e-06
0.00727344
6.21971e-11
0.00201353
6.01484e-06
3.07066e-07
2.595e-15
0.00887918
5.76846e-09
2.52326e-10
4.53165e-09
5.92579e-11
3.9815e-14
0.00816462
6.77835e-07
4.49011e-09
1.45922e-06
1.41657e-11
-9.63622e-08
4.24605e-10
0.00439361
2.21457e-07
7.85709e-08
6.81994e-18
6.09717e-11
5.20541e-12
0.000874412
6.05592e-09
1.53607e-06
9.18322e-16
1.65319e-10
1
1.46537e-07
1.51864e-07
6.34084e-10
0.0059085
6.16041e-07
6.98898e-07
0.000120205
7.61989e-06
2.16954e-11
1.40275e-06
0.00346083
-1.06826e-08
3.04909e-17
0.409412
1.80946e-06
7.97207e-11
4.857e-11
3.72768e-13
0.00874085
1.39577e-11
4.31947e-05
5.10026e-08
1.65429e-08
3.31719e-10
7.05217e-14
0.00694123
1.57048e-05
5.49858e-09
5.8549e-09
2.44385e-05
1.20593e-08
0.00195416
4.43679e-07
8.36442e-14
9.43206e-15
4.18247e-13
1.216e-06
2.04612e-08
0.00026452
9.74724e-10
7.21356e-14
3.89477e-14
0.000288036
-1.53771e-08
1
1.73086e-16
2.07502e-08
5.17237e-17
5.18253e-06
0.00202472
2.7154e-06
2.93046e-09
0.0036127
0.000630983
4.94111e-12
2.57099e-09
0.995282
0.00429155
5.52903e-12
2.39038e-06
5.71811e-06
2.22909e-14
1.18422e-14
3.46769e-17
8.63102e-09
5.99864e-14
1.36185e-08
2.60763e-08
1.26939e-09
2.62867e-09
0.0063982
5.01045e-11
1.25861e-05
0.811878
5.71307e-12
0.00712962
0.858064
6.0506e-13
0.0451488
3.62955e-09
0.00151518
0.999826
6.73703e-18
4.85444e-11
8.8e-09
2.16887e-11
-6.13143e-09
5.21333e-07
1.75896e-06
0.00785844
7.20579e-11
6.64408e-15
6.93492e-11
7.46655e-14
0.00748764
2.77634e-05
3.19949e-07
4.91302e-07
0.000894496
2.10625e-07
0.0783424
0.00405847
3.74529e-05
4.52863e-14
3.36577e-11
0.000241412
2.14423e-07
1.61768e-07
0.999637
0.899663
1.20797e-12
0.272507
4.5149e-07
3.20861e-17
1.72488e-10
5.48977e-13
6.43065e-14
1.75486e-12
0.00582264
0.000313754
6.73185e-10
0.000132322
8.43328e-10
1.27825e-11
0.00103015
9.74685e-13
0.994021
4.17651e-05
1.38912e-11
3.88126e-12
0.99998
-8.41282e-10
4.92602e-10
1.87085e-05
3.4799e-08
6.49519e-13
5.28816e-15
7.64152e-09
2.77226e-06
1.61211e-11
5.73522e-06
4.09378e-10
1.38851e-07
8.31591e-11
0.999999
3.64199e-14
5.88162e-17
1.17194e-09
9.34652e-12
9.70952e-07
1.32721e-08
8.13325e-08
0.999826
1.26985e-13
1.75572e-15
4.16073e-06
1.35278e-14
2.9793e-13
2.84162e-11
1.39039e-11
0.998666
2.69679e-07
-4.77516e-15
0.000298508
1.35044e-08
8.72698e-08
4.09253e-07
7.72748e-06
6.84181e-18
0.00389103
0.00701773
4.68109e-10
1.12177e-10
1.30578e-08
7.92715e-11
8.98196e-09
1.22551e-10
1.16816e-08
1.3834e-05
6.68942e-08
2.25608e-07
8.93106e-14
5.73481e-05
3.37463e-15
5.47559e-14
0.154852
2.7024e-11
6.59372e-15
2.98396e-06
1.0493e-05
6.60848e-18
6.77153e-12
2.12855e-06
2.54383e-11
6.17621e-10
6.03161e-14
2.45026e-05
1.73337e-08
2.15577e-15
7.3253e-05
2.84765e-12
1.42294e-06
6.142e-06
5.85482e-09
1.77004e-12
0.215378
2.85082e-15
1.00108e-13
4.71149e-16
1.31516e-07
8.69023e-07
2.78229e-06
1.85921e-12
0.00010969
4.52206e-11
1.9841e-06
8.25209e-08
2.08582e-09
8.89763e-07
9.73584e-10
2.18425e-08
1.53838e-11
1.11367e-14
9.76387e-12
1.77759e-12
4.57886e-11
1.03239e-06
-1.85279e-16
3.32881e-16
0.000721726
0.00144787
9.91083e-08
5.38464e-12
2.79167e-08
4.69185e-19
5.57816e-18
1.15591e-08
6.93244e-14
2.079e-09
1.95539e-11
3.84408e-15
1.97913e-07
4.10665e-05
2.71498e-16
1.47793e-06
6.36233e-12
5.4294e-14
0.0783424
4.14117e-10
1.20885e-14
4.11547e-13
1.0656e-15
3.56446e-05
-1.8479e-09
2.79645e-07
5.01662e-13
1.12609e-14
3.5723e-07
7.67668e-15
3.76134e-17
1.46464e-13
3.06671e-13
4.34128e-06
1.07533e-14
1.49081e-14
-3.11549e-16
3.42051e-11
7.30517e-14
7.66946e-08
6.04038e-13
1.73204e-05
0.907287
1.67142e-10
6.01287e-18
1.51007e-07
4.86949e-06
-1.5229e-08
2.52197e-10
1.37352e-12
1.77905e-08
0.999843
9.94107e-08
9.58696e-06
1.34085e-13
1.48796e-13
1.22982e-09
0.84336
8.84528e-13
1.54725e-08
4.49649e-18
1.68984e-12
7.68896e-10
1.36296e-14
6.66749e-16
4.63701e-13
1.14365e-08
1.03261e-05
1.12812e-09
0.999975
3.87055e-09
1.5864e-07
4.91681e-09
1.41311e-17
1.94159e-07
2.02927e-13
8.40168e-07
6.35238e-16
2.33836e-16
2.01725e-10
1.11686e-07
1.76362e-08
6.80459e-14
3.35655e-16
9.60954e-09
0.999548
1.18849e-06
1.95613e-07
1
-1.00162e-07
7.11677e-16
5.76537e-19
8.16372e-09
4.60171e-09
6.89971e-10
6.19955e-16
-2.61744e-11
3.8339e-14
4.86306e-09
1
1.9448e-17
3.94085e-06
2.95762e-14
-1.20775e-10
2.31229e-13
-6.61772e-07
0.108439
0.999978
2.5242e-08
1.81172e-12
3.32576e-13
1
0.999984
4.99294e-06
3.62251e-08
3.06312e-14
0.999974
1.57028e-07
3.74244e-15
6.53284e-19
-9.32258e-17
2.09793e-15
4.89578e-14
5.8608e-10
1.44746e-06
1.31571e-11
1.63615e-06
6.97292e-08
1.78643e-09
5.54351e-16
7.68655e-10
5.09982e-17
4.66946e-09
6.10256e-08
1.11021e-10
1.09709e-14
2.52279e-15
1.82155e-08
1.73844e-13
4.97046e-09
5.48282e-17
0.999647
2.76044e-07
2.40911e-17
2.18357e-07
9.00603e-17
1.86523e-09
0.13056
4.39685e-16
0.999998
1
1.56385e-09
-9.11125e-10
4.83904e-15
3.59621e-15
1
8.47015e-12
1.57056e-20
1.45012e-18
3.30911e-15
3.98867e-17
1.38176e-11
1.23905e-09
7.59499e-17
1.01441e-14
-1.30672e-18
3.5597e-18
2.63974e-10
7.29086e-09
-9.3668e-09
8.71894e-15
1.73349e-16
1.37817e-14
4.44489e-10
5.36798e-08
1.76546e-16
-3.67111e-08
3.64669e-16
7.63587e-10
2.31124e-09
3.40261e-10
1.76043e-10
8.08711e-08
4.47698e-15
1.5593e-10
1
3.1295e-11
-8.19283e-21
3.97275e-09
-3.83237e-10
6.57035e-08
4.963e-13
6.15031e-06
9.82494e-09
3.84696e-11
1
6.76116e-10
3.08125e-11
4.48996e-18
2.19463e-10
4.96862e-06
5.71975e-17
5.12713e-10
7.03956e-10
4.21962e-11
3.6825e-10
3.72803e-10
5.87636e-14
9.36417e-10
5.75201e-22
2.85185e-09
2.05268e-10
1.24026e-19
2.771e-08
-5.67438e-13
7.23613e-11
9.39772e-15
4.23658e-08
2.08015e-06
5.81525e-10
7.02996e-13
2.76343e-20
6.75826e-13
-1.74119e-09
1.55365e-18
6.41137e-09
-6.93409e-09
1.04134e-17
3.06639e-15
1.5376e-16
5.26312e-10
1.83654e-12
1.27769e-12
1
8.72751e-16
1.29253e-09
8.10484e-16
4.14818e-10
3.30476e-12
0.99995
1.85856e-11
3.13491e-12
-6.60239e-11
4.22717e-11
6.15252e-17
2.25182e-13
9.05623e-13
4.02207e-11
3.70127e-17
0.84372
0.843426
5.63853e-18
1
1.00621e-12
1.91723e-16
-2.92623e-12
2.41112e-10
-4.64454e-10
2.59478e-11
2.09677e-11
3.87553e-10
0.523221
-2.25905e-10
2.211e-05
2.58432e-05
1.05141e-10
2.84803e-10
1
6.62407e-14
1.21796e-10
9.81499e-22
-2.79885e-12
2.91839e-18
2.47478e-23
3.4431e-18
1.03629e-11
2.24854e-17
1
1
4.59245e-18
2.51563e-11
1
5.81579e-12
5.80867e-12
0.999762
6.34935e-18
2.49234e-13
1.16476e-17
3.07959e-16
0.869761
4.99645e-17
1.42587e-14
0.215462
5.47091e-14
2.17519e-10
1
2.97009e-14
4.76819e-16
2.72085e-10
3.48095e-18
1.75944e-12
-3.71241e-09
3.05506e-10
6.29032e-12
8.23389e-12
4.8344e-11
0.0152545
1.04739e-09
2.91839e-18
9.07455e-11
0.999998
3.27301e-14
4.04793e-15
2.5457e-09
3.06618e-19
0.417861
2.05197e-16
1
7.39462e-16
4.16782e-12
1.34248e-12
4.10034e-10
3.78675e-13
2.79733e-13
-8.59943e-23
2.4488e-12
2.03694e-11
3.55936e-16
5.97844e-16
5.35676e-12
4.90303e-25
3.89627e-14
1.60586e-18
2.27119e-12
2.47884e-12
1.62137e-13
9.24863e-11
1.07846e-18
4.81543e-12
8.07804e-13
2.41334e-20
4.143e-13
-4.49431e-11
4.02982e-18
5.94565e-12
2.79429e-14
-5.66243e-13
3.15073e-15
2.60473e-13
-3.62137e-12
-5.70317e-14
4.45329e-22
1.67757e-12
2.75714e-12
3.96112e-10
3.17702e-11
0.865975
-5.16332e-11
9.70033e-19
6.64886e-13
8.85639e-12
8.9213e-11
9.16162e-12
1
8.69716e-12
1
8.39744e-12
2.49066e-25
1.57233e-14
1
3.05458e-12
4.33357e-14
3.73821e-17
2.05331e-13
1
-2.29365e-13
3.49827e-15
1
1.81306e-20
1.0539e-16
-0.000218039
9.08274e-11
7.86918e-14
2.14572e-13
1
2.49638e-16
4.95321e-16
1.34846e-23
2.9553e-12
4.82044e-20
3.93678e-11
-6.6074e-13
2.08913e-15
1.62692e-13
9.41563e-13
4.78803e-21
1.56815e-17
5.41382e-15
6.51862e-11
-1.76908e-12
4.18343e-17
-1.01643e-13
1
2.91839e-18
6.05932e-14
1
3.18075e-18
4.22779e-12
4.01777e-18
1.96857e-11
1.3156e-13
5.4709e-18
9.91622e-13
2.99012e-14
8.99849e-18
-6.22756e-17
3.31112e-19
2.49361e-25
3.08061e-17
2.63392e-16
5.95844e-15
0.0046425
3.55887e-15
1.55103e-13
3.30121e-14
-4.43554e-13
2.81932e-15
0.999973
0.868963
0.662
6.08141e-16
-8.84927e-15
1.78862e-15
7.29267e-12
3.06774e-13
-8.34892e-13
1
5.90598e-12
4.96813e-16
3.64286e-12
3.2326e-12
2.16991e-27
1.18787e-22
1
1.94509e-15
2.63511e-14
9.64236e-13
6.02492e-19
7.35158e-19
-8.94551e-14
-2.7439e-19
1.13132e-18
1.61892e-16
8.24118e-18
1.87101e-19
2.94341e-16
1.5503e-12
3.0959e-21
1.00265e-13
6.81444e-16
-4.14521e-14
6.84652e-15
1
3.89627e-14
3.89627e-14
2.0375e-16
3.97938e-22
3.05444e-18
1.25575e-13
4.23834e-17
7.70935e-13
3.6781e-13
0
-1.88779e-16
1.51123e-12
2.35744e-16
9.07788e-23
3.24151e-13
-3.79571e-20
-3.75975e-15
3.4151e-29
3.00307e-16
4.90841e-15
5.07681e-13
0.999998
0.99999
1
1.74068e-18
1.15567e-15
-6.47412e-15
6.21885e-14
4.11938e-14
1.26029e-13
1
2.81275e-23
3.99083e-19
-2.59883e-15
3.44929e-14
-1.62366e-14
1.14126e-17
2.5635e-16
-1.09845e-21
3.45402e-15
-3.05364e-16
4.19077e-18
8.29233e-19
9.25569e-19
1.51921e-24
8.67079e-14
0
1.50803e-17
1.67514e-14
3.75289e-15
5.24284e-15
8.34975e-14
9.86011e-15
1
1.4894e-12
1.88544e-15
1.32774e-26
2.21117e-17
7.6104e-14
8.56525e-22
1.12904e-15
1.57054e-19
6.41558e-15
5.85418e-12
1.86813e-19
1.01396e-15
2.0375e-16
1.03981e-14
1.14868e-14
5.84527e-12
-3.38608e-20
-6.11428e-18
7.5879e-13
-4.1075e-13
-2.71658e-16
1
2.34291e-18
3.80801e-14
1.76704e-19
5.96272e-20
-1.91226e-16
3.63862e-14
3.35528e-30
3.35528e-30
-2.18749e-17
1
2.10244e-14
2.93659e-17
-5.66843e-19
9.27559e-18
-9.41591e-17
1.88e-14
1.316e-14
-4.00685e-20
-3.667e-15
1.91582e-20
-1.82694e-16
0
-3.91425e-20
1
1
4.01625e-20
-7.28648e-15
0
7.80361e-25
0.983368
1.06406e-17
2.0375e-16
1.97671e-18
1.13671e-15
0
-1.17829e-19
7.96607e-17
2.85105e-16
7.02288e-21
-2.32158e-24
1.67418e-22
-1.22186e-18
3.63014e-20
-5.13348e-20
2.50389e-15
-1.47988e-20
3.83798e-16
-4.91773e-18
-1.46126e-23
4.28147e-24
-1.23222e-23
-1.96845e-21
-7.39366e-20
1
1
5.21366e-15
-4.10232e-24
-1.28243e-20
2.28167e-16
1.42857e-15
-5.58066e-18
-1.18242e-19
1.22017e-14
-1.43892e-20
-8.77217e-19
-1.26118e-21
-1.8967e-18
5.41631e-22
-9.0317e-21
5.32377e-22
6.55816e-21
3.76072e-17
1.36654e-19
-3.84111e-22
1.97163e-16
9.37851e-16
2.95111e-16
-4.43409e-19
2.91301e-20
9.65614e-20
-5.03499e-23
-9.05027e-26
4.41833e-17
-1.39518e-18
-3.12839e-25
-1.62223e-23
9.93671e-19
3.68446e-21
1.61949e-19
3.86316e-17
1.06554e-24
6.1832e-19
1.48667e-23
-1.37291e-25
-4.74825e-19
-8.51556e-21
-9.52181e-24
2.51039e-18
-2.04497e-18
5.21459e-19
7.37334e-16
-8.12868e-22
5.88026e-16
-7.10521e-26
-2.36005e-20
1.14441e-19
-1.16314e-19
-1.12531e-20
-1.83758e-22
-7.81872e-28
-7.01917e-27
-6.10559e-25
4.5196e-21
7.64166e-22
-7.53585e-21
2.81815e-16
-2.14294e-19
-8.20877e-24
4.00824e-26
1.1092e-24
-9.9089e-23
-3.91112e-21
1.85353e-26
1.05897e-27
3.03181e-29
6.6638e-24
1.40397e-21
1
1
7.10818e-46
1
6.43879e-46
1
2.33635e-22
-1.5689e-23
7.37334e-16
8.44745e-22
6.61359e-21
3.17427e-18
3.17032e-25
5.94751e-24
2.64159e-17
8.36239e-18
2.94867e-22
4.26548e-23
5.46353e-17
3.79513e-25
4.14641e-24
2.65951e-21
7.49814e-21
1.01676e-29
7.63063e-31
3.50584e-29
4.04204e-28
5.52852e-27
5.91918e-26
5.5929e-27
1.03123e-19
1.32658e-22
9.4866e-10
4.42008e-20
-3.17158e-19
2.75241e-21
3.58902e-26
9.8413e-28
1
0.584092
0.999997
6.08838e-31
4.08286e-27
0.0012769
1.602e-15
1.80613e-27
1.70894e-29
0.999897
2.39587e-09
0.999999
0.999993
6.08838e-31
1
0.000434629
1
0.999999
0.324276
1
0.00154003
0.993402
1
1.24026e-19
1.24026e-19
1
1
1
1
1
1
0.999864
0.999997
1
0.969605
0.969617
0.969617
1
0.995029
0.000730107
0.752308
1.14264e-11
1.13001e-11
1
1
1
0.149549
2.35453e-09
0.218584
1
0.999927
0.884485
1
1
1
1
1
1
0.999984
0.999831
0.999988
0.994145
0.906672
1.38387e-09
1
0.969616
1.12906e-11
0.903705
0.578681
0.967748
0.993458
0.805812
0.867578
5.59851e-08
0.969617
0.999871
0.387008
0.508604
0.697359
6.48873e-11
0.115086
0.993264
1.24136e-19
0.410258
1.39942e-11
0.653312
0.504043
0.884877
4.67444e-05
0.94837
6.42416e-10
1
0.936276
1
0.880204
3.61535e-10
1
1.36514e-11
0.347221
1
0.0192022
1.36515e-11
0.627434
0.00115271
0.443369
0.836361
0.771945
1
0.003534
1
1
1.37631e-11
)
;

boundaryField
{
    patch0
    {
        type            zeroGradient;
    }
}


// ************************************************************************* //
