/*--------------------------------*- C++ -*----------------------------------*\
  =========                 |
  \\      /  F ield         | OpenFOAM: The Open Source CFD Toolbox
   \\    /   O peration     | Website:  https://openfoam.org
    \\  /    A nd           | Version:  8
     \\/     M anipulation  |
\*---------------------------------------------------------------------------*/
FoamFile
{
    version     2.0;
    format      ascii;
    class       volScalarField;
    location    "0.45";
    object      epsilon;
}
// * * * * * * * * * * * * * * * * * * * * * * * * * * * * * * * * * * * * * //

dimensions      [0 2 -3 0 0 0 0];

internalField   nonuniform List<scalar> 
1924
(
0.0488644
0.0547399
0.076687
0.0779946
0.0579245
0.0786831
0.0791757
0.0799115
0.0801132
0.0743582
0.0810994
0.0810856
0.0266772
0.0823544
0.0809094
0.0793553
0.0281803
0.0822101
0.0445267
0.0829178
0.0208712
0.0541709
0.0393336
0.0825691
0.0557009
0.0651057
0.0687758
0.0646436
0.0626222
0.0644697
0.0347886
0.0569684
0.0446904
0.0305844
0.0679179
0.0427088
0.0589129
0.0657915
0.0587266
0.0320982
0.0618043
0.0224508
0.0622718
0.0387067
0.0745222
0.0585281
0.0488524
0.0772705
0.0189343
0.0179515
0.0607413
0.0244147
0.0530493
0.0612699
0.0519885
0.0726917
0.044211
0.0755874
0.0712834
0.0788764
0.0452784
0.0794765
0.0441203
0.0571798
0.0606859
0.0773624
0.0844979
0.0420321
0.0641122
0.0544586
0.0233715
0.0791153
0.0544757
0.0692793
0.0684768
0.0352865
0.0782643
0.0715566
0.0774311
0.0529093
0.0783363
0.0732057
0.0705853
0.0212125
0.0455156
0.0443842
0.0715253
0.0815674
0.0172714
0.0230533
0.0848235
0.071036
0.0597011
0.0632506
0.0262463
0.0532062
0.0784898
0.0790888
0.0797786
0.0246304
0.0767989
0.0243749
0.0815177
0.0749922
0.0666756
0.0750138
0.0764568
0.0596629
0.0769473
0.0659894
0.0788507
0.069901
0.0626728
0.0710171
0.0774619
0.0191767
0.0775651
0.0792093
0.0573251
0.0780818
0.0401656
0.0623353
0.0196669
0.0198709
0.0818291
0.0676997
0.0397088
0.0711556
0.0702247
0.101604
0.0788268
0.0774655
0.265352
0.0726891
0.0255174
0.0723654
0.0710429
0.0724671
0.0828468
0.0669823
0.0754437
0.0809731
0.523718
0.224283
0.0786688
0.0499029
0.0611935
0.026183
0.075811
0.0611111
0.0652542
0.125961
0.0375049
0.0785499
0.0789859
0.0689394
0.0616843
0.0729847
0.0792274
0.494918
0.0707129
0.0420421
0.0789198
0.0658339
0.0568411
0.0725182
0.0744368
0.0790107
0.0778887
0.0745583
0.0520101
0.0800253
0.0740913
0.075265
0.0760545
0.0478805
0.0670884
0.0658376
0.0461786
0.0798945
0.0630396
0.0800947
0.0745116
0.0734889
0.0187214
0.0559175
0.0410447
0.0700354
0.0784
0.0731221
0.0541973
0.0802873
0.0791627
0.0802929
0.0776343
0.133453
0.0753346
0.0489667
0.0552249
0.0444364
0.122729
0.058819
0.0765662
0.0815203
0.0570779
0.0631187
0.0816499
0.0365755
0.0322894
0.174569
0.0699846
0.0765053
0.0832729
0.0772674
0.069387
0.0741684
0.0738173
0.0538458
0.081947
0.0695156
0.0615838
0.071184
0.0768711
0.0833842
0.0816465
0.0742742
0.0796437
0.0758728
0.0798125
0.046375
0.214412
0.0844694
0.056214
0.0802124
0.0784694
0.458819
0.0827499
0.083467
0.0785987
0.141686
0.0798458
0.0580831
0.082345
0.0381738
0.406593
0.0299736
0.0830619
0.077746
0.0739114
0.0744902
0.0649407
0.0871027
0.079793
0.0776322
0.0781498
0.0828582
0.0644422
0.055047
0.0612042
0.0835601
0.0684235
0.0789722
0.073652
0.0750836
0.0579779
0.0648266
0.0249471
0.0718942
0.0504339
0.201557
0.0435149
0.0648525
0.0521938
0.0607388
0.0840277
0.0779165
0.0830174
0.0775965
0.0784469
0.0512216
0.124781
0.210766
0.0851951
0.082334
0.0384595
0.0724332
0.0795524
0.0996285
0.0846225
0.0592102
0.080281
0.0588111
0.0808355
0.0822438
0.0160238
0.0590346
0.0824811
0.0345845
0.0698872
0.0823669
0.178877
0.0790824
0.0816848
0.0728527
0.0840007
0.0661918
0.0280085
0.0811827
0.056538
0.0753038
0.0321397
0.0639308
0.0822584
0.0550653
0.0787194
0.0292295
0.0684586
0.0844852
0.0808629
0.0744271
0.0614764
0.0457566
0.0797548
0.0654386
0.0703623
0.0763046
0.0649106
0.0614465
0.0781848
0.0802295
0.0529024
0.0844865
0.0553109
0.0837627
0.0661057
0.0803112
0.0820212
0.0824864
0.0842982
0.0807223
0.0751394
0.0693033
0.0565702
0.0360691
0.082013
0.0788023
0.224287
0.0823058
0.0668989
0.0656384
0.0608691
0.393755
0.173399
0.0814636
0.029084
0.0726315
0.0197984
0.0847896
0.0537301
0.0447687
0.0833251
0.0818244
0.0811811
0.0833358
0.0595928
0.0816423
0.056621
0.0445041
0.0842893
0.0831542
0.0804198
0.0742372
0.0578356
0.0803368
0.0686553
0.0598781
0.0817619
0.0813262
0.058178
0.0817555
0.079768
0.0708424
0.0649292
0.0783717
0.0493201
0.0799648
0.0638868
0.0834654
0.0667133
0.0827664
0.21371
0.0571396
0.0706768
0.0842473
0.0846376
0.203737
0.0635317
0.0579047
0.0800775
0.0782353
0.0536302
0.0668012
0.0347546
0.0554309
0.190248
0.0802222
0.0789477
0.0839011
0.0552338
0.0621549
0.0828564
0.0583324
0.0844435
0.0836141
0.0855611
0.0726198
0.076722
0.0810225
0.0482629
0.0788195
0.0808878
0.046932
0.0781768
0.0305093
0.0598578
0.0801944
0.0784901
0.0541822
0.0582261
0.0718916
0.0807177
0.0756402
0.0750626
0.0611351
0.0848593
0.0700436
0.0799237
0.0302469
0.0846724
0.0592859
0.0512103
0.0664998
0.078084
0.0534215
0.0820258
0.392245
0.084396
0.0644288
0.0700478
0.0825836
0.081012
0.0590615
0.0811511
0.0806824
0.0650983
0.0747971
0.0790587
0.0812691
0.0643706
0.0787433
0.0730898
0.0591817
0.0330826
0.0631721
0.0363594
0.0825052
0.0829281
0.0856252
0.0849433
0.0762918
0.062397
0.0611098
0.0582781
0.0785723
0.0470568
0.0714677
0.0465829
0.083528
0.0814672
0.0780145
0.083741
0.0856175
0.0777674
0.0825741
0.0596069
0.0614059
0.0697694
0.0799415
0.0736261
0.0790504
0.0314803
0.0725915
0.0633796
0.0790946
0.0797085
0.077188
0.0798081
0.0790988
0.0685137
0.0655284
0.0795932
0.0810877
0.0492488
0.0604699
0.0304175
0.072914
0.0804255
0.065648
0.0612787
0.078819
0.0673867
0.0762074
0.0797137
0.0807378
0.0811215
0.0806324
0.0603618
0.0740429
0.0853864
0.0779259
0.0667936
0.0804436
0.073649
0.078551
0.0832009
0.0781093
0.0587538
0.0500576
0.0644002
0.0854944
0.0663337
0.0830603
0.0630132
0.047798
0.0365448
0.0809565
0.085761
0.0496163
0.0348177
0.0623134
0.0612152
0.0650985
0.0580875
0.0652317
0.0773993
0.0720628
0.0545656
0.0504306
0.0809037
0.0804538
0.0714628
0.0760219
0.0791081
0.0660488
0.0688345
0.0500395
0.0518121
0.0644027
0.0635271
0.0478833
0.0618232
0.0681376
0.0484347
0.0769864
0.0512219
0.0458678
0.0720476
0.0794169
0.056143
0.0626411
0.0766972
0.0732275
0.067782
0.0777467
0.0591451
0.0784842
0.0503746
0.0319915
0.0782695
0.0542698
0.0614237
0.0787658
0.0851119
0.0779774
0.0621481
0.0580229
0.0790261
0.069094
0.0743272
0.0683047
0.065188
0.0680444
0.144874
0.0643496
0.063309
0.0781943
0.078229
0.0776234
0.0805652
0.0685685
0.0442762
0.0789972
0.0856247
0.0415512
0.0654412
0.081776
0.0771184
0.0677566
0.0445147
0.0693253
0.0642293
0.0806247
0.0526775
0.0788108
0.0621479
0.0804691
0.0829004
0.0384957
0.0550999
0.0564209
0.0772605
0.0728317
0.0797756
0.0631084
0.084847
0.056155
0.0562567
0.0793684
0.0807325
0.0541537
0.0780619
0.0713005
0.0771678
0.0682832
0.0673822
0.0491428
0.0707162
0.0569622
0.0722995
0.0768468
0.074226
0.0753778
0.0646857
0.0686119
0.0733505
0.0798397
0.0629258
0.0788985
0.072534
0.0507619
0.0694582
0.0758468
0.0708425
0.0848004
0.0575936
0.0760753
0.0695001
0.0656087
0.0674367
0.056843
0.0508273
0.062489
0.0566374
0.0748662
0.0759733
0.0358704
0.0650554
0.0782427
0.0693824
0.0667176
0.0637823
0.0683756
0.0374244
0.0793367
0.0797292
0.0736617
0.0842627
0.0790897
0.0662126
0.0572659
0.0775267
0.0774224
0.0795024
0.0787994
0.0645846
0.0850172
0.0766527
0.0504684
0.0767413
0.0623347
0.0671507
0.0844548
0.0799466
0.0706913
0.069842
0.0782392
0.0598351
0.059118
0.0657807
0.0640745
0.0693525
0.0692396
0.0717327
0.0329101
0.0636634
0.0720003
0.0733591
0.0701852
0.0765964
0.0689712
0.0699273
0.0658855
0.0740123
0.0516103
0.067641
0.0791941
0.0747605
0.0696124
0.0780543
0.0333361
0.0567105
0.0786826
0.0661105
0.0620075
0.0788019
0.0425208
0.0706877
0.0520248
0.0399018
0.0750291
0.0748068
0.0612056
0.0577172
0.0650735
0.0785491
0.0668255
0.0768024
0.0723664
0.0792001
0.0694392
0.0653688
0.075157
0.0670657
0.0774211
0.0806245
0.134817
0.0684335
0.0636288
0.0698822
0.0742018
0.0652785
0.0737814
0.0835448
0.0482927
0.0554862
0.0847357
0.0490277
0.0570172
0.052805
0.0787732
0.0477949
0.0754872
0.0782611
0.070388
0.0654333
0.0639344
0.0697856
0.0676463
0.0660836
0.0714822
0.0785307
0.0711858
0.0638458
0.073657
0.034663
0.0758414
0.0696329
0.0690705
0.0663992
0.0729284
0.0691949
0.0590888
0.0825456
0.0522115
0.0833994
0.0466578
0.0795844
0.0720766
0.0762623
0.0632663
0.0658453
0.0690687
0.0765519
0.0739691
0.0671465
0.0683343
0.0759406
0.0523241
0.0725323
0.0695847
0.039368
0.0421876
0.0669783
0.0413164
0.0595667
0.0791209
0.0439902
0.0786287
0.0746032
0.069213
0.0471154
0.0747246
0.0637091
0.100808
0.0699304
0.0668007
0.0785333
0.0673304
0.0668524
0.0555111
0.0683775
0.0854279
0.0772141
0.0676693
0.0763223
0.0742757
0.0686134
0.0774746
0.0748275
0.0678113
0.0791494
0.0607286
0.0701786
0.0706794
0.0674865
0.0700919
0.0564349
0.0779376
0.0710915
0.166352
0.0807194
0.110126
0.0715465
0.0687922
0.0223845
0.0677895
0.0721825
0.0682554
0.0786958
0.068756
0.0815949
0.0756995
0.06827
0.056604
0.0790069
0.0734321
0.0677583
0.0702985
0.0632242
0.0463838
0.077545
0.0769793
0.0734805
0.0453516
0.0677233
0.0741435
0.0652469
0.0684251
0.0686405
0.0682188
0.0694829
0.0693577
0.0665858
0.0830132
0.0702745
0.0452461
0.0575265
0.0683969
0.0542394
0.0730577
0.0299792
0.0698407
0.0786608
0.043466
0.0738067
0.0685752
0.074459
0.0814941
0.0759979
0.0766059
0.0701512
0.0622726
0.108143
0.0758616
0.074542
0.0748788
0.0739301
0.0790442
0.0669971
0.0793538
0.0689951
0.0433236
0.0702449
0.0510946
0.0699825
0.0686016
0.0752457
0.0671911
0.071283
0.0749124
0.0707562
0.0447448
0.0738309
0.291414
0.0561572
0.0751592
0.0678925
0.0696941
0.0705365
0.0457573
0.0436307
0.0791766
0.0702127
0.0545506
0.0712401
0.0692719
0.0591171
0.0854071
0.0809393
0.072795
0.0706772
0.0790112
0.0698224
0.0658392
0.0737984
0.0361389
0.0782768
0.0669471
0.0732474
0.0754856
0.0458425
0.285583
0.070137
0.0577115
0.119168
0.0737487
0.0707062
0.0739705
0.068527
0.079249
0.0648219
0.0695824
0.256383
0.0677542
0.0773626
0.172753
0.0658261
0.0618909
0.0686641
0.0790031
0.0621778
0.063733
0.0685144
0.0837738
0.0617363
0.0745658
0.0760223
0.0707332
0.0712856
0.0639066
0.0468642
0.0692389
0.0425092
0.0711271
0.0781184
0.0279911
0.0734942
0.0724708
0.076717
0.0472532
0.0791372
0.0728197
0.0637979
0.0698776
0.0711672
0.0760758
0.0708522
0.0448392
0.0365322
0.0650157
0.0530069
0.0748971
0.0608828
0.0703636
0.0660859
0.0422191
0.0633847
0.0775959
0.0780763
0.068692
0.0707602
0.065991
0.0634788
0.0787403
0.0670084
0.038785
0.0787551
0.0813014
0.0726393
0.0467703
0.0706954
0.0666253
0.0793108
0.0737885
0.0728555
0.0707769
0.0738361
0.0736603
0.0679187
0.0715848
0.072963
0.074383
0.0733777
0.107572
0.0428059
0.0485487
0.0739178
0.0687936
0.0753943
0.0750097
0.0643556
0.0528685
0.0624206
0.0701477
0.0770348
0.0490472
0.0542003
0.0695609
0.0819667
0.0622212
0.071313
0.0623755
0.0786163
0.0826776
0.0763967
0.0790879
0.0723054
0.0645547
0.0725639
0.0723305
0.0741459
0.0701382
0.0735949
0.0671761
0.0709476
0.0775344
0.0839305
0.0719685
0.0732947
0.0756813
0.0607757
0.0732467
0.0609709
0.0618925
0.03184
0.0669572
0.0443235
0.0770527
0.072259
0.0623944
0.0597313
0.0788546
0.0617635
0.0705129
0.0629681
0.0734906
0.0746123
0.119048
0.0785664
0.064068
0.0719675
0.0863584
0.0734456
0.0651214
0.0313078
0.0601393
0.0591726
0.0503322
0.0736252
0.0786675
0.0731146
0.0660008
0.0783079
0.0838043
0.104321
0.0711124
0.0735985
0.0769762
0.0779482
0.0748722
0.0639333
0.0589261
0.0665715
0.0579985
0.0870771
0.0728612
0.0335494
0.0567486
0.0727369
0.0774051
0.0725842
0.064239
0.0766916
0.115424
0.149667
0.0842207
0.0638608
0.0707176
0.0709685
0.0601315
0.0725546
0.0729767
0.0589382
0.078126
0.071331
0.0697291
0.0479372
0.0736898
0.0613641
0.0798687
0.0462457
0.0782392
0.0758465
0.0774221
0.0626172
0.0575115
0.0722889
0.0695002
0.0646173
0.0517204
0.0637916
0.0778541
0.160931
0.0467764
0.0552117
0.0667501
0.0806143
0.0710131
0.0647386
0.119196
0.0504126
0.0738997
0.063055
0.0772701
0.0779323
0.0742827
0.0714133
0.0644687
0.0749533
0.0620633
0.0728379
0.0728858
0.159306
0.0802705
0.070711
0.0669204
0.0573467
0.07302
0.052109
0.0653202
0.0709515
0.0553219
0.0543923
0.058951
0.0833865
0.0776291
0.0728856
0.0356799
0.0749408
0.0769372
0.0760584
0.0528004
0.0767856
0.0556818
0.0719579
0.050133
0.113007
0.0664847
0.0723495
0.0719314
0.0819648
0.0512311
0.0721169
0.0328664
0.0973032
0.0758365
0.0454571
0.0717884
0.0524193
0.0530118
0.0751183
0.0749505
0.073069
0.0490307
0.0740056
0.0536158
0.0702364
0.0491855
0.0480131
0.0762952
0.0546649
0.0711611
0.0608893
0.0765882
0.0429193
0.0564063
0.0745228
0.0654416
0.0681867
0.070735
0.0533817
0.0720284
0.0700321
0.0553715
0.0622281
0.074853
0.0607332
0.0507523
0.0335925
0.0857105
0.0681946
0.0656564
0.0722685
0.0692296
0.0754403
0.0757587
0.0741936
0.0473448
0.0741393
0.0454705
0.0714333
0.0760358
0.0729289
0.0488397
0.0445153
0.0744156
0.0555758
0.0719801
0.0467205
0.210198
0.0721968
0.0480517
0.075901
0.0494613
0.0742652
0.0841284
0.0640816
0.0418975
0.105991
0.0721921
0.0752846
0.0508404
0.14366
0.0436598
0.0650145
0.0495126
0.0449837
0.0520129
0.044027
0.0687285
0.0701208
0.0629206
0.0542823
0.0435884
0.0528135
0.068417
0.0742882
0.0699972
0.0463866
0.0552995
0.0464521
0.0732335
0.0704047
0.103061
0.0751984
0.0902826
0.070653
0.0723074
0.0719265
0.0682861
0.0712391
0.0527804
0.0741647
0.044112
0.0730436
0.0477907
0.0692181
0.0720415
0.0709769
0.0551715
0.154623
0.0708896
0.0640441
0.0426277
0.0717053
0.0706906
0.0497211
0.0730928
0.145404
0.04181
0.067171
0.076737
0.150752
0.0481177
0.063618
0.0662076
0.0763063
0.0417024
0.0704032
0.0720412
0.103551
0.0685788
0.0696693
0.0698959
0.0529806
0.070792
0.189134
0.0695685
0.0659648
0.0395176
0.072189
0.0715938
0.0410279
0.0710673
0.0706833
0.0556026
0.0629872
0.0562718
0.07115
0.130034
0.143294
0.0557341
0.0427393
0.0602268
0.125183
0.0708031
0.0688946
0.126685
0.0720228
0.0540211
0.0665954
0.0688226
0.159049
0.142213
0.0598135
0.0643567
0.0949386
0.0696523
0.0645645
0.0454625
0.0463177
0.0578617
0.0419023
0.0656187
0.0692123
0.0673493
0.0686394
0.0689923
0.0709582
0.17199
0.0691241
0.208301
0.221603
0.0710387
0.063823
0.0394712
0.144615
0.0676452
0.0377674
0.0654197
0.0839803
0.0388535
0.0859565
0.0710466
0.0933915
0.0464535
0.0329668
0.0886452
0.0683315
0.0990892
0.0678369
0.0613537
0.068009
0.0920193
0.0589266
0.0957219
0.0621227
0.0773261
0.0992372
0.0524757
0.0292292
0.0569998
0.0584738
0.164775
0.15103
0.101839
0.0689896
0.0499127
0.0708683
0.0686571
0.0583469
0.0610017
0.0542412
0.0699525
0.0512223
0.0693783
0.0813887
0.056666
0.0302077
0.0675826
0.0611345
0.0694822
0.050285
0.0432432
0.116878
0.0382432
0.102869
0.0683177
0.0664192
0.0696195
0.0519892
0.0667536
0.035383
0.0580273
0.0697791
0.160057
0.0605829
0.0609231
0.0342514
0.116834
0.0529288
0.0560434
0.0513347
0.0604078
0.0687144
0.0798896
0.0670676
0.0624829
0.0774402
0.0664375
0.0680194
0.08985
0.0569184
0.0634317
0.0652387
0.101885
0.0530911
0.0652144
0.0620024
0.0758173
0.0674149
0.0508852
0.055437
0.0685864
0.114342
0.0665743
0.050191
0.0646422
0.0674209
0.0677891
0.0502363
0.0395364
0.0654833
0.0328153
0.0672097
0.0318021
0.06558
0.159346
0.119948
0.115062
0.169211
0.0578985
0.0919771
0.0645453
0.0570408
0.0325683
0.0848227
0.111787
0.0342802
0.0671769
0.0629601
0.0657849
0.0383232
0.0582038
0.0584368
0.0738426
0.0653433
0.0383922
0.0650887
0.0630749
0.0550044
0.0651212
0.0574209
0.0411883
0.0525326
0.0984607
0.0671481
0.0622388
0.0514295
0.0596897
0.0295633
0.130868
0.0481382
0.0606347
0.138259
0.0641166
0.145374
0.0652288
0.0571352
0.153421
0.0644651
0.112661
0.16231
0.0620975
0.0495362
0.0705819
0.171585
0.180238
0.0588256
0.053152
0.0624975
0.0565875
0.0488919
0.0610675
0.0470699
0.0600201
0.143844
0.180791
0.186835
0.0543817
0.0559699
0.0626315
0.106945
0.0600929
0.081296
0.115679
0.0573686
0.0606441
0.111528
0.063737
0.0435795
0.027238
0.190063
0.101945
0.063259
0.10565
0.0476587
0.057695
0.0578214
0.0548849
0.0561819
0.122745
0.113674
0.0538556
0.0618522
0.105473
0.0611734
0.0929905
0.0585112
0.0479357
0.138583
0.207429
0.218079
0.110018
0.0429335
0.0492303
0.0615449
0.0574783
0.0600264
0.0647399
0.0452556
0.051395
0.0637801
0.0552804
0.0972147
0.0606186
0.0467685
0.0535547
0.04921
0.0597328
0.188865
0.063335
0.0606493
0.094587
0.0551194
0.0547837
0.053893
0.053728
0.0510844
0.211337
0.0526827
0.113722
0.0772643
0.0953397
0.0538229
0.0578138
0.0533157
0.0490151
0.059022
0.0488412
0.0964887
0.0501246
0.157769
0.172769
0.0500409
0.088406
0.054975
0.0965707
0.0528301
0.0627155
0.0452771
0.0526587
0.0539093
0.0448558
0.0245387
0.0598505
0.182316
0.0782635
0.0515088
0.200334
0.0975776
0.054543
0.0468095
0.048872
0.226305
0.0469625
0.205317
0.106868
0.0572136
0.061922
0.218512
0.0938928
0.0473708
0.209881
0.0653445
0.0455933
0.0812179
0.0479322
0.043785
0.0486157
0.0976119
0.0418503
0.0568816
0.053113
0.0560831
0.0536546
0.0230909
0.0527726
0.0517266
0.0505008
0.0549405
0.0439248
0.0504059
0.189716
0.0500486
0.0497549
0.0450694
0.0539775
0.0447313
0.0419384
0.0674747
0.0866355
0.0409092
0.0578774
0.0430272
0.0335389
0.0396028
0.0967176
0.198277
0.0466173
0.0416633
0.0933452
0.0505773
0.0870216
0.171202
0.0398453
0.0411816
0.0428056
0.039067
0.172375
0.166266
0.0442445
0.0895897
0.0993652
0.088728
0.0341045
0.035067
0.0397368
0.0439038
0.0369369
0.0461764
0.0650533
0.0489163
0.0339876
0.0449119
0.0906175
0.178047
0.0455413
0.0488857
0.0516461
0.0441136
0.0373357
0.0381805
0.0476942
0.0822335
0.156643
0.0351838
0.0970281
0.0405204
0.163902
0.0375983
0.172386
0.104209
0.191841
0.0412763
0.175083
0.0425913
0.0837095
0.0334082
0.0405412
0.153035
0.0723699
0.0307896
0.0754587
0.070551
0.137009
0.0387019
0.086801
0.0360636
0.13856
0.0256085
0.0398677
0.032003
0.143299
0.152208
0.0844318
0.0781464
0.101714
0.0758528
0.179337
0.118247
0.0319284
0.0337592
0.0378633
0.0348344
0.125216
0.0880728
0.056385
0.0244485
0.0315675
0.0288701
0.0327944
0.0374689
0.0367111
0.0308752
0.0993088
0.0644714
0.0285201
0.174531
0.0566137
0.0858733
0.0494793
0.0246359
0.0272537
0.0403214
0.0219639
0.0298072
0.023795
0.0304755
0.0563469
0.118243
0.0628541
0.185551
0.0664022
0.127173
0.147897
0.0595427
0.109575
0.159497
0.0810475
0.0666557
0.113826
0.165453
0.101415
0.0617411
0.125979
0.0721102
0.0596053
0.0369406
0.051212
0.0473889
0.08492
0.0997489
0.0554843
0.138839
0.0236165
0.0759722
0.0298229
0.0346569
0.0321445
0.0679471
0.0703405
0.0561863
0.0374941
0.0527098
0.0380624
0.0262972
0.0539756
0.045722
0.0258283
0.0520198
0.068371
0.0769943
0.0561393
0.206342
0.0307705
0.223883
0.0561459
0.019832
0.0593771
0.0511315
0.258136
0.0363931
0.0408264
0.0600387
0.0650922
0.0728452
0.219704
0.147381
0.251968
0.1371
0.191727
0.165651
0.0569564
0.133631
0.0527983
0.109429
0.0640048
0.085819
0.147635
0.0389705
0.0577892
0.113609
0.327539
0.38195
0.0554525
0.0584068
0.195969
0.0364273
0.0765796
0.0258093
0.0198165
0.0644126
0.0980485
0.102279
0.07493
0.103139
0.0936521
0.0730429
0.0820126
0.082715
0.0749658
0.0530558
0.0408468
0.0190428
0.077264
0.121046
0.0609574
0.200804
0.0182481
0.0237395
0.0654825
0.0404371
0.0205222
0.0247729
0.0475824
0.0527632
0.0206602
0.0251513
0.0263108
0.0630102
0.0795765
0.0273264
0.0426433
0.083556
0.0276915
0.0813426
0.0256402
0.105916
0.121359
0.0487463
0.0431284
0.0824685
0.0195284
0.0198054
0.0994309
0.045946
0.0798279
0.0197408
0.0802274
0.0466878
0.0630965
0.0492723
0.0806908
0.0288541
0.0528683
0.032083
0.0213274
0.0222263
0.169935
0.050666
0.0738546
0.155848
0.0817463
)
;

boundaryField
{
    patch0
    {
        type            epsilonWallFunction;
        value           nonuniform List<scalar> 
4010
(
0.0488644
0.0488644
0.0547399
0.0547399
0.076687
0.076687
0.0779946
0.0779946
0.0579245
0.0579245
0.0786831
0.0786831
0.0791757
0.0791757
0.0799115
0.0799115
0.0801132
0.0801132
0.0743582
0.0743582
0.0810994
0.0810994
0.0810856
0.0810856
0.0266772
0.0266772
0.0823544
0.0823544
0.0809094
0.0809094
0.0793553
0.0793553
0.0281803
0.0281803
0.0822101
0.0822101
0.0445267
0.0445267
0.0829178
0.0829178
0.0208712
0.0208712
0.0541709
0.0541709
0.0393336
0.0393336
0.0825691
0.0825691
0.0557009
0.0557009
0.0651057
0.0651057
0.0687758
0.0687758
0.0646436
0.0646436
0.0626222
0.0626222
0.0644697
0.0644697
0.0347886
0.0347886
0.0569684
0.0569684
0.0446904
0.0446904
0.0305844
0.0305844
0.0679179
0.0679179
0.0427088
0.0427088
0.0589129
0.0589129
0.0657915
0.0657915
0.0587266
0.0587266
0.0320982
0.0320982
0.0618043
0.0618043
0.0224508
0.0224508
0.0622718
0.0622718
0.0387067
0.0387067
0.0745222
0.0745222
0.0585281
0.0585281
0.0488524
0.0488524
0.0772705
0.0772705
0.0189343
0.0189343
0.0179515
0.0179515
0.0607413
0.0607413
0.0244147
0.0244147
0.0530493
0.0530493
0.0612699
0.0612699
0.0519885
0.0519885
0.0726917
0.0726917
0.044211
0.044211
0.0755874
0.0755874
0.0712834
0.0712834
0.0788764
0.0788764
0.0452784
0.0452784
0.0794765
0.0794765
0.0441203
0.0441203
0.0571798
0.0571798
0.0606859
0.0606859
0.0773624
0.0773624
0.0844979
0.0844979
0.0420321
0.0420321
0.0641122
0.0641122
0.0544586
0.0544586
0.0233715
0.0233715
0.0791153
0.0791153
0.0544757
0.0544757
0.0692793
0.0692793
0.0684768
0.0684768
0.0352865
0.0352865
0.0782643
0.0782643
0.0715566
0.0715566
0.0774311
0.0774311
0.0529093
0.0529093
0.0783363
0.0783363
0.0732057
0.0732057
0.0705853
0.0705853
0.0212125
0.0212125
0.0455156
0.0455156
0.0443842
0.0443842
0.0715253
0.0715253
0.0815674
0.0815674
0.0172714
0.0172714
0.0230533
0.0230533
0.0848235
0.0848235
0.071036
0.071036
0.0597011
0.0597011
0.0632506
0.0632506
0.0262463
0.0262463
0.0532062
0.0532062
0.0784898
0.0784898
0.0790888
0.0790888
0.0797786
0.0797786
0.0246304
0.0246304
0.0767989
0.0767989
0.0243749
0.0243749
0.0815177
0.0815177
0.0749922
0.0749922
0.0666756
0.0666756
0.0750138
0.0750138
0.0764568
0.0764568
0.0596629
0.0596629
0.0769473
0.0769473
0.0659894
0.0659894
0.0788507
0.0788507
0.069901
0.069901
0.0626728
0.0626728
0.0710171
0.0710171
0.0774619
0.0774619
0.0191767
0.0191767
0.0775651
0.0775651
0.0792093
0.0792093
0.0573251
0.0573251
0.0780818
0.0780818
0.0401656
0.0401656
0.0623353
0.0623353
0.0196669
0.0196669
0.0198709
0.0198709
0.0818291
0.0818291
0.0676997
0.0676997
0.0397088
0.0397088
0.0711556
0.0711556
0.0702247
0.0702247
0.101604
0.101604
0.0788268
0.0788268
0.0774655
0.0774655
0.265352
0.265352
0.0726891
0.0726891
0.0255174
0.0255174
0.0723654
0.0723654
0.0710429
0.0710429
0.0724671
0.0724671
0.0828468
0.0828468
0.0669823
0.0669823
0.0754437
0.0754437
0.0809731
0.0809731
0.523718
0.523718
0.523718
0.224283
0.224283
0.224283
0.0786688
0.0786688
0.0499029
0.0499029
0.0611935
0.0611935
0.026183
0.026183
0.075811
0.075811
0.0611111
0.0611111
0.0652542
0.0652542
0.125961
0.125961
0.125961
0.0375049
0.0375049
0.0785499
0.0785499
0.0789859
0.0789859
0.0689394
0.0689394
0.0616843
0.0616843
0.0729847
0.0729847
0.0792274
0.0792274
0.494918
0.494918
0.0707129
0.0707129
0.0420421
0.0420421
0.0789198
0.0789198
0.0658339
0.0658339
0.0568411
0.0568411
0.0725182
0.0725182
0.0744368
0.0744368
0.0790107
0.0790107
0.0778887
0.0778887
0.0745583
0.0745583
0.0520101
0.0520101
0.0800253
0.0800253
0.0740913
0.0740913
0.075265
0.075265
0.0760545
0.0760545
0.0478805
0.0478805
0.0670884
0.0670884
0.0658376
0.0658376
0.0461786
0.0461786
0.0798945
0.0798945
0.0630396
0.0630396
0.0800947
0.0800947
0.0745116
0.0745116
0.0734889
0.0734889
0.0187214
0.0187214
0.0559175
0.0559175
0.0410447
0.0410447
0.0700354
0.0700354
0.0784
0.0784
0.0731221
0.0731221
0.0541973
0.0541973
0.0802873
0.0802873
0.0791627
0.0791627
0.0802929
0.0802929
0.0776343
0.0776343
0.133453
0.133453
0.133453
0.0753346
0.0753346
0.0489667
0.0489667
0.0552249
0.0552249
0.0444364
0.0444364
0.122729
0.122729
0.058819
0.058819
0.0765662
0.0765662
0.0815203
0.0815203
0.0570779
0.0570779
0.0631187
0.0631187
0.0816499
0.0816499
0.0365755
0.0365755
0.0322894
0.0322894
0.174569
0.174569
0.174569
0.0699846
0.0699846
0.0765053
0.0765053
0.0832729
0.0832729
0.0772674
0.0772674
0.069387
0.069387
0.0741684
0.0741684
0.0738173
0.0738173
0.0538458
0.0538458
0.081947
0.081947
0.0695156
0.0695156
0.0615838
0.0615838
0.071184
0.071184
0.0768711
0.0768711
0.0833842
0.0833842
0.0816465
0.0816465
0.0742742
0.0742742
0.0796437
0.0796437
0.0758728
0.0758728
0.0798125
0.0798125
0.046375
0.046375
0.214412
0.214412
0.0844694
0.0844694
0.056214
0.056214
0.0802124
0.0802124
0.0784694
0.0784694
0.458819
0.458819
0.458819
0.0827499
0.0827499
0.083467
0.083467
0.0785987
0.0785987
0.141686
0.141686
0.141686
0.0798458
0.0798458
0.0580831
0.0580831
0.082345
0.082345
0.0381738
0.0381738
0.406593
0.406593
0.0299736
0.0299736
0.0830619
0.0830619
0.077746
0.077746
0.0739114
0.0739114
0.0744902
0.0744902
0.0649407
0.0649407
0.0871027
0.0871027
0.079793
0.079793
0.0776322
0.0776322
0.0781498
0.0781498
0.0828582
0.0828582
0.0644422
0.0644422
0.055047
0.055047
0.0612042
0.0612042
0.0835601
0.0835601
0.0684235
0.0684235
0.0789722
0.0789722
0.073652
0.073652
0.0750836
0.0750836
0.0579779
0.0579779
0.0648266
0.0648266
0.0249471
0.0249471
0.0718942
0.0718942
0.0504339
0.0504339
0.201557
0.201557
0.0435149
0.0435149
0.0648525
0.0648525
0.0521938
0.0521938
0.0607388
0.0607388
0.0840277
0.0840277
0.0779165
0.0779165
0.0830174
0.0830174
0.0775965
0.0775965
0.0784469
0.0784469
0.0512216
0.0512216
0.124781
0.124781
0.210766
0.210766
0.210766
0.0851951
0.0851951
0.082334
0.082334
0.0384595
0.0384595
0.0724332
0.0724332
0.0795524
0.0795524
0.0996285
0.0996285
0.0846225
0.0846225
0.0592102
0.0592102
0.080281
0.080281
0.0588111
0.0588111
0.0808355
0.0808355
0.0822438
0.0822438
0.0160238
0.0160238
0.0590346
0.0590346
0.0824811
0.0824811
0.0345845
0.0345845
0.0698872
0.0698872
0.0823669
0.0823669
0.178877
0.178877
0.178877
0.0790824
0.0790824
0.0816848
0.0816848
0.0728527
0.0728527
0.0840007
0.0840007
0.0661918
0.0661918
0.0280085
0.0280085
0.0811827
0.0811827
0.056538
0.056538
0.0753038
0.0753038
0.0321397
0.0321397
0.0639308
0.0639308
0.0822584
0.0822584
0.0550653
0.0550653
0.0787194
0.0787194
0.0292295
0.0292295
0.0684586
0.0684586
0.0844852
0.0844852
0.0808629
0.0808629
0.0744271
0.0744271
0.0614764
0.0614764
0.0457566
0.0457566
0.0797548
0.0797548
0.0654386
0.0654386
0.0703623
0.0703623
0.0763046
0.0763046
0.0649106
0.0649106
0.0614465
0.0614465
0.0781848
0.0781848
0.0802295
0.0802295
0.0529024
0.0529024
0.0844865
0.0844865
0.0553109
0.0553109
0.0837627
0.0837627
0.0661057
0.0661057
0.0803112
0.0803112
0.0820212
0.0820212
0.0824864
0.0824864
0.0842982
0.0842982
0.0807223
0.0807223
0.0751394
0.0751394
0.0693033
0.0693033
0.0565702
0.0565702
0.0360691
0.0360691
0.082013
0.082013
0.0788023
0.0788023
0.224287
0.224287
0.0823058
0.0823058
0.0668989
0.0668989
0.0656384
0.0656384
0.0608691
0.0608691
0.393755
0.393755
0.173399
0.173399
0.0814636
0.0814636
0.029084
0.029084
0.0726315
0.0726315
0.0197984
0.0197984
0.0847896
0.0847896
0.0537301
0.0537301
0.0447687
0.0447687
0.0833251
0.0833251
0.0818244
0.0818244
0.0811811
0.0811811
0.0833358
0.0833358
0.0595928
0.0595928
0.0816423
0.0816423
0.056621
0.056621
0.0445041
0.0445041
0.0842893
0.0842893
0.0831542
0.0831542
0.0804198
0.0804198
0.0742372
0.0742372
0.0578356
0.0578356
0.0803368
0.0803368
0.0686553
0.0686553
0.0598781
0.0598781
0.0817619
0.0817619
0.0813262
0.0813262
0.058178
0.058178
0.0817555
0.0817555
0.079768
0.079768
0.0708424
0.0708424
0.0649292
0.0649292
0.0783717
0.0783717
0.0493201
0.0493201
0.0799648
0.0799648
0.0638868
0.0638868
0.0834654
0.0834654
0.0667133
0.0667133
0.0827664
0.0827664
0.21371
0.21371
0.0571396
0.0571396
0.0706768
0.0706768
0.0842473
0.0842473
0.0846376
0.0846376
0.203737
0.203737
0.203737
0.0635317
0.0635317
0.0579047
0.0579047
0.0800775
0.0800775
0.0782353
0.0782353
0.0536302
0.0536302
0.0668012
0.0668012
0.0347546
0.0347546
0.0554309
0.0554309
0.190248
0.190248
0.190248
0.0802222
0.0802222
0.0789477
0.0789477
0.0839011
0.0839011
0.0552338
0.0552338
0.0621549
0.0621549
0.0828564
0.0828564
0.0583324
0.0583324
0.0844435
0.0844435
0.0836141
0.0836141
0.0855611
0.0855611
0.0726198
0.0726198
0.076722
0.076722
0.0810225
0.0810225
0.0482629
0.0482629
0.0788195
0.0788195
0.0808878
0.0808878
0.046932
0.046932
0.0781768
0.0781768
0.0305093
0.0305093
0.0598578
0.0598578
0.0801944
0.0801944
0.0784901
0.0784901
0.0541822
0.0541822
0.0582261
0.0582261
0.0718916
0.0718916
0.0807177
0.0807177
0.0756402
0.0756402
0.0750626
0.0750626
0.0611351
0.0611351
0.0848593
0.0848593
0.0700436
0.0700436
0.0799237
0.0799237
0.0302469
0.0302469
0.0846724
0.0846724
0.0592859
0.0592859
0.0512103
0.0512103
0.0664998
0.0664998
0.078084
0.078084
0.0534215
0.0534215
0.0820258
0.0820258
0.392245
0.392245
0.392245
0.084396
0.084396
0.0644288
0.0644288
0.0700478
0.0700478
0.0825836
0.0825836
0.081012
0.081012
0.0590615
0.0590615
0.0811511
0.0811511
0.0806824
0.0806824
0.0650983
0.0650983
0.0747971
0.0747971
0.0790587
0.0790587
0.0812691
0.0812691
0.0643706
0.0643706
0.0787433
0.0787433
0.0730898
0.0730898
0.0591817
0.0591817
0.0330826
0.0330826
0.0631721
0.0631721
0.0363594
0.0363594
0.0825052
0.0825052
0.0829281
0.0829281
0.0856252
0.0856252
0.0849433
0.0849433
0.0762918
0.0762918
0.062397
0.062397
0.0611098
0.0611098
0.0582781
0.0582781
0.0785723
0.0785723
0.0470568
0.0470568
0.0714677
0.0714677
0.0465829
0.0465829
0.083528
0.083528
0.0814672
0.0814672
0.0780145
0.0780145
0.083741
0.083741
0.0856175
0.0856175
0.0777674
0.0777674
0.0825741
0.0825741
0.0596069
0.0596069
0.0614059
0.0614059
0.0697694
0.0697694
0.0799415
0.0799415
0.0736261
0.0736261
0.0790504
0.0790504
0.0314803
0.0314803
0.0725915
0.0725915
0.0633796
0.0633796
0.0790946
0.0790946
0.0797085
0.0797085
0.077188
0.077188
0.0798081
0.0798081
0.0790988
0.0790988
0.0685137
0.0685137
0.0655284
0.0655284
0.0795932
0.0795932
0.0810877
0.0810877
0.0492488
0.0492488
0.0604699
0.0604699
0.0304175
0.0304175
0.072914
0.072914
0.0804255
0.0804255
0.065648
0.065648
0.0612787
0.0612787
0.078819
0.078819
0.0673867
0.0673867
0.0762074
0.0762074
0.0797137
0.0797137
0.0807378
0.0807378
0.0811215
0.0811215
0.0806324