/*--------------------------------*- C++ -*----------------------------------*\
  =========                 |
  \\      /  F ield         | OpenFOAM: The Open Source CFD Toolbox
   \\    /   O peration     | Website:  https://openfoam.org
    \\  /    A nd           | Version:  8
     \\/     M anipulation  |
\*---------------------------------------------------------------------------*/
FoamFile
{
    version     2.0;
    format      ascii;
    class       volScalarField;
    location    "0.45";
    object      k;
}
// * * * * * * * * * * * * * * * * * * * * * * * * * * * * * * * * * * * * * //

dimensions      [0 2 -2 0 0 0 0];

internalField   nonuniform List<scalar> 
1924
(
0.0329801
0.0355526
0.0447108
0.0452942
0.0369933
0.0456079
0.0458085
0.0461118
0.0461817
0.0437194
0.0465672
0.0465521
0.0220252
0.0470376
0.0465337
0.0459376
0.0228691
0.0469777
0.0309487
0.0472464
0.0187667
0.0357608
0.028375
0.0471103
0.0364058
0.0404801
0.0420014
0.0395855
0.0391268
0.0397871
0.026246
0.0370089
0.0312313
0.0240937
0.0409723
0.0299921
0.0379113
0.0403541
0.0374034
0.0249029
0.0391473
0.0196755
0.0393082
0.0280288
0.0439428
0.0375875
0.0328504
0.0450011
0.0175863
0.0169641
0.0379725
0.0208618
0.0352291
0.0383764
0.0348825
0.0429772
0.0308228
0.0443122
0.0424163
0.0459046
0.0310951
0.0459742
0.0305582
0.0364257
0.038266
0.0450139
0.0478572
0.0297701
0.0398131
0.035237
0.0203342
0.0458191
0.0356918
0.0417783
0.0414794
0.0269106
0.0454006
0.0427319
0.0450755
0.0344384
0.0454518
0.0437583
0.0423924
0.0190578
0.0315207
0.0308853
0.042544
0.0467826
0.0165215
0.0201837
0.0479813
0.0428838
0.0381502
0.0396762
0.0221056
0.0351008
0.0454911
0.045749
0.0462732
0.0209896
0.0448083
0.021013
0.0469279
0.0444517
0.0410462
0.04411
0.0447151
0.0381661
0.0451392
0.0406912
0.0456459
0.0421478
0.0390172
0.042511
0.0450839
0.0178613
0.0451125
0.0458694
0.0366106
0.0453295
0.0289611
0.0204917
0.0180109
0.0183072
0.0467954
0.0414421
0.0291814
0.042575
0.0423275
0.0269663
0.0456374
0.0451058
0.0247929
0.0432029
0.0215923
0.0432254
0.0425138
0.0431313
0.0472151
0.0407621
0.0441682
0.0464332
0.0325502
0.0189312
0.0456173
0.033594
0.0388242
0.0219137
0.0446503
0.038217
0.0402704
0.0206318
0.028055
0.0455805
0.0457457
0.0419486
0.0203498
0.043247
0.0458054
0.0370166
0.0423624
0.0303708
0.0457344
0.0212525
0.0367231
0.0433061
0.0440653
0.0199527
0.0452526
0.0440281
0.0346035
0.0461765
0.0437428
0.0445081
0.0444294
0.0330561
0.0408812
0.0151501
0.0315498
0.0461472
0.039623
0.0461719
0.0439049
0.0437188
0.0174636
0.0358704
0.0297987
0.0424604
0.0454616
0.0433383
0.0358314
0.0462674
0.0457764
0.046294
0.0452965
0.0214437
0.0445197
0.0335494
0.0363001
0.0314716
0.0219925
0.0371473
0.0448301
0.0467474
0.0367416
0.0397088
0.0468219
0.0276347
0.0253576
0.0154219
0.0221392
0.0447564
0.0473767
0.0451636
0.0422177
0.0437739
0.0438368
0.0357266
0.0469219
0.0419144
0.0389611
0.0426482
0.0449743
0.0474246
0.0467847
0.0441204
0.0459721
0.0444563
0.0461717
0.0323948
0.0268151
0.0479616
0.036788
0.0158871
0.0457578
0.0292783
0.0471761
0.0474948
0.045639
0.0223196
0.0460607
0.0375892
0.0470208
0.0284587
0.0406774
0.0241495
0.0473206
0.0451592
0.0436693
0.0439026
0.0397635
0.0231019
0.0461629
0.0452266
0.0453616
0.0472253
0.0401714
0.0362813
0.0388534
0.0475187
0.0417529
0.0458063
0.0438534
0.0441365
0.0374221
0.0400062
0.0210002
0.0428648
0.0342494
0.0308117
0.0310038
0.0400978
0.0348462
0.0387051
0.0478102
0.0452892
0.0472958
0.0454261
0.0455464
0.0345983
0.0243256
0.023207
0.0481913
0.0471529
0.0281461
0.0430577
0.0459322
0.0248629
0.0479114
0.038083
0.0463313
0.0375335
0.0466361
0.0469814
0.0157821
0.0375844
0.0471004
0.0265909
0.0420584
0.0470353
0.0253545
0.045828
0.0467671
0.0434126
0.0476652
0.0409578
0.022626
0.0465728
0.0369076
0.04426
0.0253734
0.0393705
0.0471319
0.0360186
0.0455942
0.0232918
0.0418053
0.0478524
0.0465715
0.0441048
0.0386281
0.0320603
0.0461054
0.0402649
0.042607
0.0446392
0.040422
0.0390024
0.0453556
0.0462017
0.0353466
0.047873
0.0360693
0.0475707
0.0405304
0.0464314
0.0470778
0.0471775
0.0478762
0.0464934
0.0441687
0.0418587
0.036719
0.0273809
0.0469189
0.0457112
0.0263555
0.047024
0.0406777
0.0407452
0.0386915
0.0381386
0.0292388
0.0466826
0.0236927
0.0431606
0.0181086
0.0479568
0.0356517
0.0312962
0.0475241
0.0468257
0.0465709
0.0475496
0.0381329
0.0468346
0.0366873
0.0313999
0.0478814
0.0474427
0.0462791
0.0440714
0.0374539
0.0462539
0.0418922
0.0143627
0.0468077
0.0466621
0.0374542
0.0468115
0.0460631
0.0424379
0.0404571
0.0456336
0.0337199
0.0461012
0.0396203
0.0475628
0.0410996
0.0472661
0.0309127
0.0368081
0.0427308
0.0477937
0.0479632
0.0156634
0.0397916
0.0372915
0.0461401
0.0454836
0.0352588
0.0408018
0.0265898
0.0364368
0.0174651
0.0463901
0.0457026
0.0476682
0.0363064
0.0392159
0.0473791
0.0372379
0.0478232
0.0475637
0.0483121
0.0432909
0.0448167
0.0465158
0.0327123
0.0456326
0.046459
0.0325353
0.0453961
0.0244373
0.0382119
0.0461912
0.0455018
0.0355624
0.037333
0.0431417
0.0465237
0.0443815
0.0444017
0.0383027
0.0480584
0.042409
0.0460848
0.0237791
0.0479591
0.0379311
0.0345769
0.0409936
0.0455483
0.0350909
0.04695
0.0237242
0.047937
0.0398298
0.0425052
0.047229
0.046532
0.0376222
0.0467264
0.0463793
0.0404286
0.0443465
0.0457492
0.0466149
0.0396369
0.0457031
0.0433552
0.0378085
0.0252023
0.0390892
0.0274287
0.0471828
0.047304
0.0483458
0.04804
0.0446333
0.0393111
0.0383659
0.0372738
0.0455567
0.032529
0.0426957
0.0322112
0.0474812
0.0467394
0.045384
0.0477198
0.0482959
0.0454049
0.047174
0.037914
0.0388725
0.0422814
0.0461039
0.0438069
0.0457295
0.0244344
0.0433946
0.0392592
0.0457561
0.0460027
0.0450099
0.0461189
0.0458887
0.0417858
0.040295
0.0459557
0.0465468
0.0336376
0.0383926
0.024253
0.0433873
0.0462844
0.0406522
0.0384887
0.0456555
0.0410357
0.0446182
0.0460902
0.0465815
0.0466562
0.0464649
0.0383091
0.0440489
0.0481948
0.045362
0.0406929
0.0462979
0.043595
0.0455496
0.04751
0.045602
0.0374702
0.0333259
0.0401344
0.0482363
0.0404676
0.0473133
0.0391552
0.0324006
0.0273968
0.0465415
0.0483486
0.033685
0.0260954
0.0392256
0.0385285
0.0401022
0.0367778
0.0401476
0.0450978
0.0431484
0.0356834
0.0332736
0.0465241
0.04629
0.0429155
0.0446731
0.0457773
0.0404057
0.0418944
0.0334203
0.0340579
0.0396934
0.0394454
0.0326964
0.0389801
0.0412745
0.0333078
0.0450438
0.0345157
0.0316772
0.0429455
0.0458873
0.0363555
0.0390564
0.044819
0.0435864
0.0414807
0.045318
0.0376131
0.0456072
0.03345
0.0250757
0.0454385
0.0352837
0.0387566
0.0457119
0.0480797
0.0454063
0.0389091
0.0369048
0.0457355
0.0416963
0.0438783
0.0414333
0.0404545
0.0412596
0.0271352
0.0397973
0.0391789
0.0454087
0.0454948
0.0451527
0.0463957
0.0414728
0.0310872
0.0457281
0.0483
0.0293112
0.0401697
0.0468484
0.0452548
0.0411982
0.0311507
0.041876
0.0400317
0.0463661
0.0344529
0.045634
0.0389582
0.0463603
0.0474001
0.0283794
0.0359875
0.0363052
0.0450435
0.0432768
0.0460362
0.0394859
0.0479585
0.0363628
0.0360172
0.0459496
0.0466312
0.0351759
0.0454023
0.0428413
0.0449724
0.0412952
0.0409932
0.0333254
0.0426206
0.0366353
0.043207
0.04488
0.0439427
0.0443783
0.039895
0.0418021
0.0435663
0.0460655
0.0393746
0.0457207
0.0432902
0.034256
0.0418937
0.0445627
0.0423439
0.0480772
0.0365821
0.0446235
0.0419218
0.0403059
0.0413468
0.0363594
0.0338839
0.0387947
0.036546
0.0440985
0.044582
0.0269725
0.0403301
0.0454855
0.0418723
0.0407294
0.0395966
0.0414725
0.0273756
0.0458461
0.0460311
0.0436181
0.047724
0.0457707
0.0404854
0.0364591
0.0451442
0.0451035
0.0459714
0.0456874
0.0400971
0.0480109
0.0448326
0.0338885
0.044836
0.0387383
0.0409192
0.04781
0.0460976
0.0425836
0.0420978
0.0454322
0.037578
0.037587
0.040362
0.0397842
0.0418881
0.0417943
0.042972
0.0254356
0.0395609
0.0430745
0.0435651
0.0423866
0.0447795
0.0416971
0.0421272
0.0403313
0.043827
0.0343923
0.0414008
0.0460603
0.0440963
0.0420167
0.0453668
0.0255793
0.0365551
0.0456641
0.0405336
0.0385023
0.0456663
0.0111248
0.0101258
0.0346372
0.0289527
0.0441631
0.0441115
0.0382363
0.0370233
0.0401212
0.0455915
0.0410457
0.0448925
0.0432154
0.0458566
0.0419246
0.0402517
0.0442316
0.0409502
0.0165337
0.046366
0.0245862
0.0414752
0.039257
0.042108
0.0438354
0.0403439
0.0437304
0.0474556
0.0328289
0.0360088
0.0480553
0.0331891
0.0368389
0.0349047
0.045694
0.0326644
0.0443665
0.0454818
0.0423155
0.040351
0.0393342
0.0421993
0.0411535
0.0403414
0.0428517
0.0455791
0.0427347
0.0396008
0.0436571
0.0263346
0.0444748
0.0419952
0.041925
0.0405094
0.0433882
0.0418566
0.0375854
0.0470655
0.0349925
0.0474261
0.0321506
0.0459679
0.0430858
0.0446459
0.0393642
0.0401746
0.041826
0.044758
0.0437736
0.0409732
0.0414829
0.0445159
0.0345823
0.0432635
0.0420346
0.0283321
0.0300863
0.0410576
0.0297284
0.0378182
0.0458006
0.0306996
0.0456248
0.0440174
0.0418142
0.0323215
0.044038
0.0395622
0.0200452
0.0421739
0.0406412
0.045574
0.0410043
0.0409704
0.0359337
0.04155
0.0482735
0.0450415
0.0411242
0.0446924
0.0438618
0.0415611
0.0451491
0.0441013
0.0411266
0.0457997
0.0383379
0.0422711
0.0425164
0.0411436
0.042284
0.0364339
0.0453318
0.0425983
0.0153004
0.0463973
0.0225937
0.0428571
0.041761
0.0196568
0.0413242
0.0431058
0.0414262
0.0456421
0.0417181
0.0467324
0.0444541
0.0413575
0.0365327
0.0457514
0.0435845
0.0413215
0.0423091
0.0394012
0.0319606
0.0451776
0.0449565
0.043595
0.0315243
0.0412966
0.0438471
0.0402298
0.0415846
0.041534
0.0412659
0.0419521
0.0419644
0.0408327
0.0472354
0.0422874
0.0314698
0.0369652
0.0415523
0.014492
0.0434527
0.0239435
0.0421588
0.045621
0.0306832
0.0437375
0.0415952
0.043966
0.0466986
0.0445702
0.0448054
0.0422275
0.0390001
0.0213997
0.0445406
0.0439523
0.0440881
0.0437143
0.0457695
0.0410174
0.0458888
0.0416883
0.0305693
0.0423166
0.0342237
0.0422056
0.041596
0.0442435
0.0410103
0.0427194
0.044115
0.0425034
0.0312658
0.0436783
0.0220396
0.0364683
0.0442443
0.0412906
0.0420854
0.0424228
0.0316791
0.0306885
0.0458233
0.042253
0.0356859
0.042652
0.0418353
0.0376676
0.0482802
0.0465064
0.0433251
0.0424652
0.0457583
0.042111
0.0405224
0.043733
0.0269987
0.0454574
0.0409907
0.0435215
0.0443735
0.0317557
0.0276713
0.0422121
0.0369007
0.0244021
0.0437169
0.0424644
0.0437972
0.0415586
0.0458488
0.0401315
0.0420071
0.0239263
0.0413298
0.0451044
0.0191673
0.0405339
0.00915523
0.0416235
0.0457393
0.0389092
0.0396089
0.0416431
0.0475731
0.0388022
0.0440184
0.0445928
0.0424786
0.0427095
0.0396975
0.0322646
0.0419364
0.0301464
0.042661
0.0454328
0.0230368
0.0436129
0.0431806
0.0448566
0.0327372
0.0458101
0.0433248
0.0397084
0.0421902
0.0426586
0.0446113
0.0425224
0.0313022
0.0272525
0.0402039
0.0351525
0.0441493
0.0384204
0.042382
0.0406598
0.0300361
0.0395233
0.0451955
0.0453812
0.0416577
0.0425033
0.0405645
0.0395901
0.0456367
0.0410455
0.0283114
0.0456721
0.0466212
0.0431874
0.0322077
0.0425156
0.0408098
0.0458706
0.0437358
0.0432796
0.0424558
0.0437542
0.0436775
0.0414205
0.042851
0.0433175
0.0439681
0.0434842
0.0152318
0.03036
0.033051
0.0437781
0.0417757
0.0443482
0.044115
0.0396592
0.0348635
0.0391495
0.0422077
0.0449799
0.0332814
0.0355884
0.0420832
0.0468781
0.0389525
0.0427249
0.0391058
0.0456189
0.047176
0.0447369
0.0457845
0.0431242
0.0399416
0.0432249
0.0431392
0.0438676
0.0423136
0.0435987
0.0410564
0.0426254
0.0451266
0.0476305
0.0429928
0.0434891
0.0444629
0.0384291
0.0435089
0.0385309
0.0389201
0.0248403
0.0409645
0.0311042
0.0450268
0.0431304
0.0390496
0.0379714
0.0457106
0.0388004
0.0424656
0.0393818
0.0436072
0.0440431
0.0243413
0.0456016
0.0398471
0.0430118
0.0196642
0.0435899
0.0402872
0.0245379
0.0381484
0.0377245
0.0338548
0.0436684
0.0456384
0.0434579
0.040654
0.0454887
0.0193355
0.0222556
0.0427069
0.0436526
0.0449988
0.0452887
0.0441484
0.0397277
0.0376834
0.0408945
0.0372708
0.0198099
0.0433658
0.0257853
0.0367352
0.0433121
0.0451305
0.0432565
0.0398362
0.0448563
0.0132505
0.0157814
0.0477417
0.0397073
0.0425563
0.0425051
0.0382107
0.0432606
0.0434055
0.0376504
0.0454459
0.0426561
0.0420172
0.0330725
0.0436829
0.0387408
0.01868
0.0320021
0.0454762
0.0445302
0.0451694
0.0392736
0.0370506
0.0431536
0.0419339
0.0399554
0.034457
0.0397684
0.0453402
0.0178005
0.0322627
0.0360595
0.040975
0.0188005
0.042685
0.0401667
0.0243259
0.012877
0.0437681
0.0393144
0.0451099
0.0453449
0.0439379
0.0426963
0.0399523
0.0441828
0.0388895
0.0433384
0.0433639
0.018442
0.0187781
0.0425646
0.0158857
0.0369487
0.0434164
0.0346398
0.0404133
0.042515
0.0360967
0.0357349
0.0375987
0.0474361
0.0452211
0.043357
0.0269057
0.0440746
0.0449544
0.0446158
0.0350257
0.0449423
0.036295
0.0429769
0.0338195
0.0233382
0.0408698
0.0431797
0.0430431
0.0190791
0.0343283
0.0430898
0.0254619
0.0214492
0.0445862
0.0315905
0.0429799
0.0348694
0.035077
0.0442516
0.0442117
0.043434
0.0332896
0.0438082
0.0354071
0.0423941
0.033302
0.0328049
0.044748
0.0358759
0.0426566
0.0384464
0.0448641
0.0307595
0.0364209
0.0440829
0.0404702
0.0413767
0.00951708
0.00791493
0.043026
0.0423087
0.0361928
0.0389462
0.044173
0.038378
0.0340951
0.025809
0.0196746
0.0413887
0.0405473
0.0431208
0.0417972
0.0444296
0.0445354
0.0439528
0.0324817
0.0438657
0.0317364
0.0427519
0.0446214
0.0433764
0.0331349
0.031207
0.0440271
0.0362888
0.0429833
0.032334
0.0208042
0.0430776
0.0329555
0.0445783
0.0336052
0.0439186
0.0194197
0.0397155
0.0299264
0.0248828
0.0430749
0.0443212
0.0342336
0.0171201
0.0307566
0.0403027
0.0334929
0.0314634
0.0347642
0.0310237
0.0415918
0.0423294
0.0392447
0.0355998
0.0308058
0.0349365
0.0416812
0.0439771
0.042286
0.0321059
0.0360239
0.0319925
0.0435103
0.0424572
0.021833
0.0442951
0.0203633
0.0424896
0.0432165
0.0429664
0.04163
0.0427545
0.0351113
0.0438854
0.0309641
0.0434269
0.0327281
0.0419965
0.0431105
0.0425824
0.0361171
0.0182649
0.042581
0.0399111
0.0302584
0.042913
0.0425183
0.0335703
0.043461
0.0175871
0.0299621
0.0411735
0.0447963
0.0179995
0.0327023
0.0397315
0.0405607
0.044621
0.0298962
0.0424338
0.043019
0.0193835
0.0417373
0.0420979
0.0422121
0.0352056
0.0424912
0.0208912
0.0421147
0.0404536
0.0289031
0.0430902
0.0428745
0.0296394
0.0426095
0.0424626
0.0361881
0.0392439
0.0364705
0.0427294
0.0162825
0.0173726
0.0361963
0.030453
0.0382583
0.0157263
0.0425014
0.0417965
0.0234449
0.0430311
0.0356303
0.0409403
0.0416534
0.0246745
0.0173068
0.0380596
0.0400187
0.0210419
0.00987042
0.00942091
0.0315716
0.0319858
0.0372466
0.0299417
0.0405238
0.0419803
0.0411787
0.0416765
0.0418942
0.0425729
0.0191994
0.0418041
0.0223411
0.0231952
0.0426902
0.0398006
0.0287461
0.0175386
0.0412818
0.0280262
0.0404571
0.0194055
0.028497
0.01975
0.0426244
0.0203965
0.0320534
0.0255085
0.0201804
0.0415098
0.0215762
0.0413616
0.0388054
0.0168341
0.020706
0.0376663
0.021269
0.0388947
0.016695
0.0217935
0.0349905
0.02344
0.0368583
0.0375301
0.0228639
0.0180816
0.0221774
0.0417773
0.0336449
0.0425608
0.0416446
0.037497
0.0386692
0.0357387
0.0421722
0.0343027
0.0419066
0.0189514
0.0367895
0.0240707
0.0412394
0.0384508
0.0419543
0.0338106
0.0309156
0.0151737
0.0281414
0.0223286
0.0414583
0.0406427
0.0420151
0.0347722
0.0409123
0.0268079
0.0372722
0.0421124
0.0187995
0.0382301
0.0385795
0.0261764
0.0242586
0.0349686
0.0364356
0.0344496
0.0383678
0.0416557
0.0187395
0.040954
0.0391527
0.0183506
0.0407622
0.0413976
0.0202783
0.0368788
0.0393983
0.0403568
0.0221871
0.0352364
0.0402122
0.0389811
0.018092
0.0410853
0.0342827
0.0362571
0.0416165
0.0149235
0.04075
0.0337643
0.0399901
0.0411953
0.0412484
0.0339629
0.0287762
0.0404477
0.0254084
0.0411223
0.0249328
0.0404224
0.0186547
0.0246913
0.0239743
0.0194976
0.0373079
0.0205305
0.0398779
0.036839
0.0252785
0.0191144
0.0147631
0.0260398
0.0410075
0.0391968
0.0403843
0.0281862
0.0372022
0.0372911
0.0177696
0.0403022
0.0282143
0.0401216
0.0392655
0.0359753
0.0401247
0.0371357
0.0295527
0.0347786
0.0217071
0.0410114
0.0389192
0.0342737
0.0378825
0.0237035
0.0165944
0.0329982
0.015581
0.0172233
0.039781
0.0178043
0.0401969
0.0369485
0.0184487
0.0399543
0.0236305
0.0191519
0.0388429
0.0334107
0.0172356
0.0198713
0.0205298
0.0375429
0.0351505
0.0390286
0.0367241
0.0334061
0.0383894
0.0325168
0.0380389
0.0158926
0.0184468
0.0210232
0.0356972
0.0363696
0.0391426
0.0229332
0.0379696
0.0189311
0.02413
0.0368189
0.0382805
0.0235706
0.0160714
0.0307326
0.0224446
0.0212591
0.0222159
0.0394425
0.014207
0.0325747
0.0369307
0.0370445
0.0357542
0.0363212
0.0159363
0.0151598
0.0354666
0.0388381
0.0144304
0.0386368
0.0209661
0.0372992
0.0329936
0.0169412
0.0224178
0.0231547
0.0232509
0.0304373
0.033303
0.0387754
0.0369261
0.0380449
0.0399971
0.0314549
0.0342722
0.039646
0.0358759
0.0136581
0.0382633
0.0321387
0.0353823
0.0134948
0.0378311
0.021169
0.039481
0.0382826
0.0131562
0.0146104
0.0357015
0.035271
0.0352247
0.0341705
0.0226688
0.0349019
0.0148794
0.01797
0.0210783
0.0352975
0.0371402
0.0352518
0.033123
0.0375272
0.0331323
0.0214099
0.0337497
0.0186002
0.019749
0.0336826
0.0127939
0.0359316
0.0212435
0.0347936
0.0391021
0.031717
0.0349808
0.0354565
0.0314667
0.020923
0.0379582
0.0206945
0.011748
0.0341963
0.0219614
0.0134557
0.035668
0.0322468
0.0332114
0.0237687
0.0321429
0.022231
0.0228047
0.0369059
0.0387763
0.0232445
0.0208437
0.0324072
0.0226456
0.0402327
0.031606
0.0118789
0.0325979
0.0309767
0.032935
0.0214011
0.0300165
0.0366366
0.00907031
0.00928373
0.0353037
0.0200905
0.0349867
0.0343794
0.0338078
0.0357635
0.0308741
0.0339186
0.0211762
0.0336005
0.03362
0.0312869
0.0353457
0.0310976
0.0298861
0.0166934
0.012398
0.029362
0.0370523
0.0303902
0.0257713
0.0291534
0.0213427
0.0217205
0.0321411
0.0299315
0.0208335
0.0338869
0.0200888
0.0198919
0.028894
0.0294417
0.0301982
0.0285683
0.0197068
0.0192346
0.0312847
0.0201991
0.0217349
0.0201206
0.0259731
0.0265497
0.0287333
0.0308342
0.0274371
0.0129613
0.0102351
0.0332658
0.0259482
0.0312583
0.0205191
0.0202882
0.031672
0.0330804
0.034482
0.0308878
0.02779
0.0280613
0.0325499
0.0191049
0.0184827
0.0265109
0.021321
0.0294481
0.0191569
0.0277814
0.0198122
0.0224307
0.0212562
0.0295609
0.0199164
0.0302418
0.0193074
0.0255865
0.0294096
0.0182945
0.0175162
0.0242331
0.0182276
0.0173776
0.017103
0.0284629
0.0124328
0.0271149
0.0171151
0.0214608
0.0289017
0.024954
0.0174182
0.0182384
0.0195559
0.01855
0.0220753
0.0180841
0.0203373
0.0153876
0.0249153
0.025907
0.0279006
0.0264448
0.015921
0.0126369
0.0148149
0.0208024
0.0247439
0.0233027
0.0253411
0.0278778
0.0273401
0.0243074
0.0136381
0.0162308
0.0230421
0.0198785
0.0148748
0.0123634
0.0135901
0.0209694
0.0224382
0.00745253
0.00789917
0.00609557
0.00523781
0.00983257
0.00935907
0.0154225
0.0159971
0.0207971
0.0166381
0.0162298
0.0180374
0.0153974
0.0146321
0.0189865
0.019153
0.0166277
0.0149516
0.0193034
0.013825
0.0157752
0.0160263
0.0175543
0.00968233
0.00710287
0.00884377
0.0132063
0.0123378
0.0137298
0.01467
0.0171293
0.0203928
0.0444865
0.0238448
0.0264315
0.0251008
0.0165036
0.010798
0.0364048
0.027675
0.0348212
0.00722422
0.0219131
0.0354159
0.0316836
0.0216694
0.0138713
0.0160299
0.0448945
0.0363317
0.0204689
0.00618219
0.0216282
0.0362906
0.0181306
0.0377635
0.0343226
0.0237987
0.0269821
0.0297507
0.0380349
0.00881291
0.0095641
0.0213693
0.0163627
0.0244991
0.0155916
0.0195055
0.017691
0.0367194
0.0243233
0.0348781
0.0126144
0.00884465
0.0107747
0.0260325
0.0287719
0.036908
0.0135348
0.0216755
0.0240946
0.0360488
0.0373374
0.0261937
0.027042
0.0447302
0.0215661
0.0181245
0.0156748
0.012736
0.0235022
0.0165499
0.0240765
0.0192083
0.016274
0.0175788
0.0100363
0.00940232
0.0350434
0.0296981
0.0175781
0.045005
0.0159684
0.0136049
0.0263035
0.0170713
0.0203317
0.0145637
0.0293925
0.0184649
0.0209053
0.0321902
0.00844929
0.0185887
0.0211576
0.0217782
0.0147394
0.0459476
0.0223266
0.0304792
0.011099
0.0225411
0.0466356
0.0214141
0.0169729
0.0142553
0.0327942
0.0306138
0.047069
0.0179443
0.0180117
0.0119382
0.0319652
0.0460446
0.0180372
0.0462037
0.0322162
0.0148044
0.033407
0.0463836
0.0232511
0.0349058
0.0249541
0.0190767
0.0195357
0.0139251
0.0339216
0.0151532
0.0152847
0.0467922
)
;

boundaryField
{
    patch0
    {
        type            kqRWallFunction;
        value           nonuniform List<scalar> 
4010
(
0.0329801
0.0329801
0.0355526
0.0355526
0.0447108
0.0447108
0.0452942
0.0452942
0.0369933
0.0369933
0.0456079
0.0456079
0.0458085
0.0458085
0.0461118
0.0461118
0.0461817
0.0461817
0.0437194
0.0437194
0.0465672
0.0465672
0.0465521
0.0465521
0.0220252
0.0220252
0.0470376
0.0470376
0.0465337
0.0465337
0.0459376
0.0459376
0.0228691
0.0228691
0.0469777
0.0469777
0.0309487
0.0309487
0.0472464
0.0472464
0.0187667
0.0187667
0.0357608
0.0357608
0.028375
0.028375
0.0471103
0.0471103
0.0364058
0.0364058
0.0404801
0.0404801
0.0420014
0.0420014
0.0395855
0.0395855
0.0391268
0.0391268
0.0397871
0.0397871
0.026246
0.026246
0.0370089
0.0370089
0.0312313
0.0312313
0.0240937
0.0240937
0.0409723
0.0409723
0.0299921
0.0299921
0.0379113
0.0379113
0.0403541
0.0403541
0.0374034
0.0374034
0.0249029
0.0249029
0.0391473
0.0391473
0.0196755
0.0196755
0.0393082
0.0393082
0.0280288
0.0280288
0.0439428
0.0439428
0.0375875
0.0375875
0.0328504
0.0328504
0.0450011
0.0450011
0.0175863
0.0175863
0.0169641
0.0169641
0.0379725
0.0379725
0.0208618
0.0208618
0.0352291
0.0352291
0.0383764
0.0383764
0.0348825
0.0348825
0.0429772
0.0429772
0.0308228
0.0308228
0.0443122
0.0443122
0.0424163
0.0424163
0.0459046
0.0459046
0.0310951
0.0310951
0.0459742
0.0459742
0.0305582
0.0305582
0.0364257
0.0364257
0.038266
0.038266
0.0450139
0.0450139
0.0478572
0.0478572
0.0297701
0.0297701
0.0398131
0.0398131
0.035237
0.035237
0.0203342
0.0203342
0.0458191
0.0458191
0.0356918
0.0356918
0.0417783
0.0417783
0.0414794
0.0414794
0.0269106
0.0269106
0.0454006
0.0454006
0.0427319
0.0427319
0.0450755
0.0450755
0.0344384
0.0344384
0.0454518
0.0454518
0.0437583
0.0437583
0.0423924
0.0423924
0.0190578
0.0190578
0.0315207
0.0315207
0.0308853
0.0308853
0.042544
0.042544
0.0467826
0.0467826
0.0165215
0.0165215
0.0201837
0.0201837
0.0479813
0.0479813
0.0428838
0.0428838
0.0381502
0.0381502
0.0396762
0.0396762
0.0221056
0.0221056
0.0351008
0.0351008
0.0454911
0.0454911
0.045749
0.045749
0.0462732
0.0462732
0.0209896
0.0209896
0.0448083
0.0448083
0.021013
0.021013
0.0469279
0.0469279
0.0444517
0.0444517
0.0410462
0.0410462
0.04411
0.04411
0.0447151
0.0447151
0.0381661
0.0381661
0.0451392
0.0451392
0.0406912
0.0406912
0.0456459
0.0456459
0.0421478
0.0421478
0.0390172
0.0390172
0.042511
0.042511
0.0450839
0.0450839
0.0178613
0.0178613
0.0451125
0.0451125
0.0458694
0.0458694
0.0366106
0.0366106
0.0453295
0.0453295
0.0289611
0.0289611
0.0204917
0.0204917
0.0180109
0.0180109
0.0183072
0.0183072
0.0467954
0.0467954
0.0414421
0.0414421
0.0291814
0.0291814
0.042575
0.042575
0.0423275
0.0423275
0.0269663
0.0269663
0.0456374
0.0456374
0.0451058
0.0451058
0.0247929
0.0247929
0.0432029
0.0432029
0.0215923
0.0215923
0.0432254
0.0432254
0.0425138
0.0425138
0.0431313
0.0431313
0.0472151
0.0472151
0.0407621
0.0407621
0.0441682
0.0441682
0.0464332
0.0464332
0.0325502
0.0325502
0.0325502
0.0189312
0.0189312
0.0189312
0.0456173
0.0456173
0.033594
0.033594
0.0388242
0.0388242
0.0219137
0.0219137
0.0446503
0.0446503
0.038217
0.038217
0.0402704
0.0402704
0.0206318
0.0206318
0.0206318
0.028055
0.028055
0.0455805
0.0455805
0.0457457
0.0457457
0.0419486
0.0419486
0.0203498
0.0203498
0.043247
0.043247
0.0458054
0.0458054
0.0370166
0.0370166
0.0423624
0.0423624
0.0303708
0.0303708
0.0457344
0.0457344
0.0212525
0.0212525
0.0367231
0.0367231
0.0433061
0.0433061
0.0440653
0.0440653
0.0199527
0.0199527
0.0452526
0.0452526
0.0440281
0.0440281
0.0346035
0.0346035
0.0461765
0.0461765
0.0437428
0.0437428
0.0445081
0.0445081
0.0444294
0.0444294
0.0330561
0.0330561
0.0408812
0.0408812
0.0151501
0.0151501
0.0315498
0.0315498
0.0461472
0.0461472
0.039623
0.039623
0.0461719
0.0461719
0.0439049
0.0439049
0.0437188
0.0437188
0.0174636
0.0174636
0.0358704
0.0358704
0.0297987
0.0297987
0.0424604
0.0424604
0.0454616
0.0454616
0.0433383
0.0433383
0.0358314
0.0358314
0.0462674
0.0462674
0.0457764
0.0457764
0.046294
0.046294
0.0452965
0.0452965
0.0214437
0.0214437
0.0214437
0.0445197
0.0445197
0.0335494
0.0335494
0.0363001
0.0363001
0.0314716
0.0314716
0.0219925
0.0219925
0.0371473
0.0371473
0.0448301
0.0448301
0.0467474
0.0467474
0.0367416
0.0367416
0.0397088
0.0397088
0.0468219
0.0468219
0.0276347
0.0276347
0.0253576
0.0253576
0.0154219
0.0154219
0.0154219
0.0221392
0.0221392
0.0447564
0.0447564
0.0473767
0.0473767
0.0451636
0.0451636
0.0422177
0.0422177
0.0437739
0.0437739
0.0438368
0.0438368
0.0357266
0.0357266
0.0469219
0.0469219
0.0419144
0.0419144
0.0389611
0.0389611
0.0426482
0.0426482
0.0449743
0.0449743
0.0474246
0.0474246
0.0467847
0.0467847
0.0441204
0.0441204
0.0459721
0.0459721
0.0444563
0.0444563
0.0461717
0.0461717
0.0323948
0.0323948
0.0268151
0.0268151
0.0479616
0.0479616
0.036788
0.036788
0.0158871
0.0158871
0.0457578
0.0457578
0.0292783
0.0292783
0.0292783
0.0471761
0.0471761
0.0474948
0.0474948
0.045639
0.045639
0.0223196
0.0223196
0.0223196
0.0460607
0.0460607
0.0375892
0.0375892
0.0470208
0.0470208
0.0284587
0.0284587
0.0406774
0.0406774
0.0241495
0.0241495
0.0473206
0.0473206
0.0451592
0.0451592
0.0436693
0.0436693
0.0439026
0.0439026
0.0397635
0.0397635
0.0231019
0.0231019
0.0461629
0.0461629
0.0452266
0.0452266
0.0453616
0.0453616
0.0472253
0.0472253
0.0401714
0.0401714
0.0362813
0.0362813
0.0388534
0.0388534
0.0475187
0.0475187
0.0417529
0.0417529
0.0458063
0.0458063
0.0438534
0.0438534
0.0441365
0.0441365
0.0374221
0.0374221
0.0400062
0.0400062
0.0210002
0.0210002
0.0428648
0.0428648
0.0342494
0.0342494
0.0308117
0.0308117
0.0310038
0.0310038
0.0400978
0.0400978
0.0348462
0.0348462
0.0387051
0.0387051
0.0478102
0.0478102
0.0452892
0.0452892
0.0472958
0.0472958
0.0454261
0.0454261
0.0455464
0.0455464
0.0345983
0.0345983
0.0243256
0.0243256
0.023207
0.023207
0.023207
0.0481913
0.0481913
0.0471529
0.0471529
0.0281461
0.0281461
0.0430577
0.0430577
0.0459322
0.0459322
0.0248629
0.0248629
0.0479114
0.0479114
0.038083
0.038083
0.0463313
0.0463313
0.0375335
0.0375335
0.0466361
0.0466361
0.0469814
0.0469814
0.0157821
0.0157821
0.0375844
0.0375844
0.0471004
0.0471004
0.0265909
0.0265909
0.0420584
0.0420584
0.0470353
0.0470353
0.0253545
0.0253545
0.0253545
0.045828
0.045828
0.0467671
0.0467671
0.0434126
0.0434126
0.0476652
0.0476652
0.0409578
0.0409578
0.022626
0.022626
0.0465728
0.0465728
0.0369076
0.0369076
0.04426
0.04426
0.0253734
0.0253734
0.0393705
0.0393705
0.0471319
0.0471319
0.0360186
0.0360186
0.0455942
0.0455942
0.0232918
0.0232918
0.0418053
0.0418053
0.0478524
0.0478524
0.0465715
0.0465715
0.0441048
0.0441048
0.0386281
0.0386281
0.0320603
0.0320603
0.0461054
0.0461054
0.0402649
0.0402649
0.042607
0.042607
0.0446392
0.0446392
0.040422
0.040422
0.0390024
0.0390024
0.0453556
0.0453556
0.0462017
0.0462017
0.0353466
0.0353466
0.047873
0.047873
0.0360693
0.0360693
0.0475707
0.0475707
0.0405304
0.0405304
0.0464314
0.0464314
0.0470778
0.0470778
0.0471775
0.0471775
0.0478762
0.0478762
0.0464934
0.0464934
0.0441687
0.0441687
0.0418587
0.0418587
0.036719
0.036719
0.0273809
0.0273809
0.0469189
0.0469189
0.0457112
0.0457112
0.0263555
0.0263555
0.047024
0.047024
0.0406777
0.0406777
0.0407452
0.0407452
0.0386915
0.0386915
0.0381386
0.0381386
0.0292388
0.0292388
0.0466826
0.0466826
0.0236927
0.0236927
0.0431606
0.0431606
0.0181086
0.0181086
0.0479568
0.0479568
0.0356517
0.0356517
0.0312962
0.0312962
0.0475241
0.0475241
0.0468257
0.0468257
0.0465709
0.0465709
0.0475496
0.0475496
0.0381329
0.0381329
0.0468346
0.0468346
0.0366873
0.0366873
0.0313999
0.0313999
0.0478814
0.0478814
0.0474427
0.0474427
0.0462791
0.0462791
0.0440714
0.0440714
0.0374539
0.0374539
0.0462539
0.0462539
0.0418922
0.0418922
0.0143627
0.0143627
0.0468077
0.0468077
0.0466621
0.0466621
0.0374542
0.0374542
0.0468115
0.0468115
0.0460631
0.0460631
0.0424379
0.0424379
0.0404571
0.0404571
0.0456336
0.0456336
0.0337199
0.0337199
0.0461012
0.0461012
0.0396203
0.0396203
0.0475628
0.0475628
0.0410996
0.0410996
0.0472661
0.0472661
0.0309127
0.0309127
0.0368081
0.0368081
0.0427308
0.0427308
0.0477937
0.0477937
0.0479632
0.0479632
0.0156634
0.0156634
0.0156634
0.0397916
0.0397916
0.0372915
0.0372915
0.0461401
0.0461401
0.0454836
0.0454836
0.0352588
0.0352588
0.0408018
0.0408018
0.0265898
0.0265898
0.0364368
0.0364368
0.0174651
0.0174651
0.0174651
0.0463901
0.0463901
0.0457026
0.0457026
0.0476682
0.0476682
0.0363064
0.0363064
0.0392159
0.0392159
0.0473791
0.0473791
0.0372379
0.0372379
0.0478232
0.0478232
0.0475637
0.0475637
0.0483121
0.0483121
0.0432909
0.0432909
0.0448167
0.0448167
0.0465158
0.0465158
0.0327123
0.0327123
0.0456326
0.0456326
0.046459
0.046459
0.0325353
0.0325353
0.0453961
0.0453961
0.0244373
0.0244373
0.0382119
0.0382119
0.0461912
0.0461912
0.0455018
0.0455018
0.0355624
0.0355624
0.037333
0.037333
0.0431417
0.0431417
0.0465237
0.0465237
0.0443815
0.0443815
0.0444017
0.0444017
0.0383027
0.0383027
0.0480584
0.0480584
0.042409
0.042409
0.0460848
0.0460848
0.0237791
0.0237791
0.0479591
0.0479591
0.0379311
0.0379311
0.0345769
0.0345769
0.0409936
0.0409936
0.0455483
0.0455483
0.0350909
0.0350909
0.04695
0.04695
0.0237242
0.0237242
0.0237242
0.047937
0.047937
0.0398298
0.0398298
0.0425052
0.0425052
0.047229
0.047229
0.046532
0.046532
0.0376222
0.0376222
0.0467264
0.0467264
0.0463793
0.0463793
0.0404286
0.0404286
0.0443465
0.0443465
0.0457492
0.0457492
0.0466149
0.0466149
0.0396369
0.0396369
0.0457031
0.0457031
0.0433552
0.0433552
0.0378085
0.0378085
0.0252023
0.0252023
0.0390892
0.0390892
0.0274287
0.0274287
0.0471828
0.0471828
0.047304
0.047304
0.0483458
0.0483458
0.04804
0.04804
0.0446333
0.0446333
0.0393111
0.0393111
0.0383659
0.0383659
0.0372738
0.0372738
0.0455567
0.0455567
0.032529
0.032529
0.0426957
0.0426957
0.0322112
0.0322112
0.0474812
0.0474812
0.0467394
0.0467394
0.045384
0.045384
0.0477198
0.0477198
0.0482959
0.0482959
0.0454049
0.0454049
0.047174
0.047174
0.037914
0.037914
0.0388725
0.0388725
0.0422814
0.0422814
0.0461039
0.0461039
0.0438069
0.0438069
0.0457295
0.0457295
0.0244344
0.0244344
0.0433946
0.0433946
0.0392592
0.0392592
0.0457561
0.0457561
0.0460027
0.0460027
0.0450099
0.0450099
0.0461189
0.0461189
0.0458887
0.0458887
0.0417858
0.0417858
0.040295
0.040295
0.0459557
0.0459557
0.0465468
0.0465468
0.0336376
0.0336376
0.0383926
0.0383926
0.024253
0.024253