/*--------------------------------*- C++ -*----------------------------------*\
  =========                 |
  \\      /  F ield         | OpenFOAM: The Open Source CFD Toolbox
   \\    /   O peration     | Website:  https://openfoam.org
    \\  /    A nd           | Version:  8
     \\/     M anipulation  |
\*---------------------------------------------------------------------------*/
FoamFile
{
    version     2.0;
    format      ascii;
    class       volScalarField;
    location    "0.45";
    object      nut;
}
// * * * * * * * * * * * * * * * * * * * * * * * * * * * * * * * * * * * * * //

dimensions      [0 2 -1 0 0 0 0];

internalField   nonuniform List<scalar> 
1924
(
0.00200333
0.00207817
0.0023461
0.00236735
0.00212631
0.00237925
0.00238531
0.00239473
0.00239595
0.00231346
0.00240649
0.00240534
0.00163659
0.00241794
0.00240868
0.00239334
0.0016703
0.00241603
0.001936
0.00242288
0.00151869
0.00212466
0.00184226
0.00241911
0.00214151
0.0022652
0.00230852
0.00218167
0.0022002
0.00220989
0.0017821
0.00216382
0.0019643
0.00170825
0.00222453
0.00189557
0.00219569
0.00222766
0.00214402
0.00173885
0.00223165
0.00155189
0.00223314
0.0018267
0.00233202
0.00217253
0.0019881
0.00235871
0.00147009
0.00144278
0.00213648
0.00160433
0.00210555
0.00216334
0.00210645
0.00228683
0.001934
0.00233798
0.00227154
0.0024044
0.00192192
0.00239349
0.00190485
0.00208841
0.00217161
0.00235726
0.00243945
0.00189768
0.00222512
0.00205199
0.00159224
0.00238823
0.00210463
0.00226747
0.00226132
0.00184707
0.0023703
0.00229666
0.00236161
0.00201742
0.00237346
0.00235407
0.00229142
0.00154098
0.0019646
0.00193427
0.00227751
0.00241487
0.00142238
0.00159042
0.00244271
0.00232997
0.00219408
0.00223995
0.00167563
0.00208408
0.00237291
0.00238172
0.00241554
0.00160984
0.00235291
0.00163033
0.00243138
0.00237139
0.00227416
0.0023344
0.00235361
0.00219732
0.00238318
0.00225824
0.00237816
0.00228723
0.00218613
0.00229024
0.00236155
0.00149726
0.00236141
0.00239063
0.00210432
0.0023684
0.0018794
0.000606267
0.00148448
0.00151798
0.00240847
0.00228317
0.00193004
0.00229268
0.00229614
0.000644133
0.00237799
0.00236373
0.000208484
0.002311
0.00164439
0.00232375
0.00228972
0.00231039
0.00242174
0.00223253
0.00232723
0.0023964
0.000182076
0.000143814
0.00238067
0.00203535
0.00221688
0.00165064
0.00236679
0.00215097
0.00223668
0.000304145
0.00188876
0.00238043
0.00238448
0.00229726
0.000604209
0.00230633
0.00238342
0.000249173
0.00228405
0.00197456
0.0023853
0.000617463
0.0021353
0.00232752
0.00234773
0.000453482
0.00236622
0.00233995
0.00207202
0.00239805
0.00232428
0.0023688
0.00233592
0.00205394
0.00224203
0.000313762
0.00193997
0.00239893
0.00224142
0.00239549
0.00232833
0.00234076
0.00146612
0.00207094
0.00194706
0.00231682
0.00237256
0.00231173
0.00213202
0.00239964
0.00238235
0.00240223
0.00237858
0.000310111
0.00236784
0.00206876
0.00214745
0.00200604
0.000354684
0.00211144
0.00236235
0.00241264
0.00212859
0.00224832
0.00241649
0.00187915
0.00179225
0.000122618
0.000630323
0.00235647
0.00242588
0.00237588
0.00231182
0.00232516
0.00234295
0.00213341
0.00241803
0.00227451
0.00221839
0.00229964
0.00236815
0.00242754
0.00241275
0.00235876
0.00238825
0.00234436
0.00240394
0.00203662
0.000301822
0.00245093
0.00216676
0.000283197
0.00240145
0.000168148
0.00242058
0.00243231
0.00238506
0.000316439
0.00239139
0.00218937
0.00241649
0.00190945
0.00036626
0.00175113
0.00242628
0.00236079
0.00232211
0.00232875
0.00219126
0.000551449
0.00240361
0.00237131
0.00236969
0.00242246
0.00225375
0.00215216
0.00221983
0.00243206
0.00229303
0.00239122
0.00234998
0.00233503
0.00217389
0.002222
0.001591
0.00230012
0.00209327
0.00042391
0.00198809
0.0022313
0.00209379
0.0022198
0.00244828
0.00236921
0.00242503
0.00239338
0.00237999
0.00210329
0.000426795
0.000229975
0.00245338
0.00243041
0.00185385
0.0023036
0.00238684
0.00055842
0.00244137
0.00220449
0.00240646
0.00215587
0.0024215
0.00241541
0.00139898
0.00215353
0.00242068
0.00184003
0.00227798
0.00241734
0.000323443
0.00239015
0.00240981
0.00232824
0.00243424
0.00228092
0.00164501
0.00240461
0.00216837
0.00234125
0.00180285
0.0021821
0.00243048
0.0021204
0.00237673
0.00167043
0.00229762
0.00243932
0.00241398
0.00235225
0.00218445
0.00202174
0.00239877
0.00222977
0.00232201
0.00235031
0.00226549
0.00222806
0.002368
0.00239455
0.00212551
0.00244139
0.00211693
0.00243148
0.00223648
0.00241596
0.00243192
0.00242846
0.00244717
0.00241008
0.00233671
0.00227541
0.00214504
0.00187069
0.00241577
0.00238643
0.000278729
0.00241797
0.00222605
0.00227634
0.00221348
0.000332464
0.000443726
0.00240762
0.00173708
0.0023083
0.00149066
0.00244118
0.00212904
0.00196902
0.00243947
0.00241173
0.00240446
0.00244177
0.00219608
0.00241802
0.00213942
0.00199388
0.00244795
0.00243611
0.0023969
0.00235469
0.00218293
0.00239676
0.00230057
0.000310063
0.00241172
0.00240958
0.00217013
0.00241229
0.00239398
0.002288
0.00226878
0.0023914
0.00207487
0.00239203
0.00221139
0.00243933
0.00227879
0.00242934
0.000402433
0.00213398
0.00232514
0.00244022
0.00244622
0.000108379
0.00224303
0.00216146
0.0023927
0.00237985
0.00208626
0.00224293
0.00183088
0.00215561
0.0001443
0.00241434
0.00238113
0.00243743
0.00214785
0.00222686
0.00243831
0.00213945
0.00243755
0.00243508
0.00245515
0.00232264
0.00235615
0.00240347
0.0019955
0.00237771
0.00240159
0.00202994
0.00237247
0.00176164
0.00219542
0.00239451
0.00237403
0.00210072
0.00215432
0.00233002
0.00241337
0.00234366
0.00236384
0.00215978
0.00244952
0.00231095
0.00239157
0.0016825
0.00244479
0.00218415
0.00210116
0.00227434
0.00239125
0.00207451
0.00241859
0.000129142
0.00245055
0.00221604
0.0023213
0.00243089
0.00240545
0.00215688
0.00242144
0.00239945
0.00225969
0.00236634
0.00238265
0.0024064
0.00219661
0.00238737
0.00231455
0.00217387
0.00172792
0.00217686
0.00186224
0.00242845
0.00242849
0.00245674
0.00244523
0.00235008
0.002229
0.00216781
0.00214558
0.00237727
0.00202377
0.00229563
0.00200461
0.00242915
0.00241338
0.00237614
0.00244738
0.00245189
0.00238589
0.00242552
0.00217042
0.00221472
0.00230608
0.00239302
0.00234582
0.00238085
0.0017069
0.00233469
0.00218865
0.00238229
0.00238948
0.00236216
0.00239858
0.00239599
0.00229363
0.00223005
0.00238806
0.00240473
0.00206775
0.0021938
0.0017404
0.00232357
0.00239728
0.00226563
0.00217571
0.00238011
0.00224901
0.00235109
0.00239843
0.00241875
0.00241505
0.00240981
0.00218819
0.00235846
0.00244824
0.00237654
0.00223124
0.00239814
0.00232246
0.00237717
0.00244166
0.00239612
0.00215069
0.00199681
0.00225107
0.00244937
0.0022219
0.00242558
0.00218973
0.00197669
0.00184849
0.00240808
0.00245313
0.00205822
0.00176023
0.00222229
0.00218246
0.00222335
0.00209571
0.00222384
0.00236492
0.0023252
0.00210017
0.00197582
0.00240786
0.00239701
0.00231948
0.00236264
0.00238409
0.00222465
0.00229482
0.00200886
0.00201487
0.00220178
0.00220433
0.00200937
0.00221196
0.0022502
0.00206147
0.00237191
0.00209324
0.00196891
0.00230387
0.00238624
0.00211878
0.00219163
0.00235715
0.00233491
0.00228465
0.0023774
0.00215279
0.00238521
0.00199904
0.00176894
0.00237409
0.00206458
0.00220089
0.00238761
0.00244442
0.00237961
0.00219238
0.00211256
0.0023822
0.00226463
0.00233127
0.00226199
0.00225948
0.00225165
0.000457425
0.00221515
0.00218214
0.00237326
0.00238121
0.00236383
0.00240464
0.00225759
0.00196442
0.0023823
0.0024521
0.00186092
0.00221916
0.0024155
0.00239009
0.00225449
0.00196188
0.00227658
0.00224553
0.0023998
0.002028
0.00237812
0.00219793
0.00240384
0.00243918
0.00188294
0.00211541
0.00210252
0.00236346
0.00231437
0.00239095
0.00222351
0.00243971
0.00211919
0.00207533
0.00239419
0.00242408
0.00205639
0.00237661
0.00231673
0.00235884
0.00224765
0.00224451
0.00203392
0.00231187
0.00212058
0.00232388
0.00235897
0.00234132
0.00235147
0.00221448
0.00229213
0.00232885
0.00239208
0.0022174
0.00238451
0.00232531
0.00208056
0.00227413
0.0023564
0.00227788
0.00245314
0.00209125
0.00235574
0.00227581
0.00222853
0.00228156
0.00209314
0.00203298
0.00216763
0.00212236
0.00233778
0.0023545
0.00182537
0.00225018
0.00237982
0.0022743
0.00223779
0.00221237
0.00226392
0.00180225
0.00238437
0.00239181
0.00232453
0.00243266
0.00238395
0.00222792
0.0020891
0.00236589
0.00236481
0.00239242
0.00238404
0.00224048
0.00244015
0.00235995
0.00204799
0.00235758
0.00216667
0.00224412
0.00243587
0.00239221
0.00230867
0.00228373
0.00237436
0.002124
0.00215079
0.00222889
0.0022232
0.002277
0.0022705
0.00231685
0.00176928
0.00221251
0.00231926
0.00232844
0.00230384
0.0023561
0.00226874
0.00228413
0.00222196
0.00233573
0.00206267
0.00228061
0.00241104
0.00234086
0.00228244
0.00237313
0.00176647
0.00212069
0.00238514
0.00223667
0.00215165
0.00238175
0.000261955
0.000130543
0.00207547
0.00189072
0.00233955
0.00234102
0.00214983
0.0021374
0.00222631
0.0023816
0.002269
0.00236165
0.00232265
0.00238958
0.00227811
0.0022307
0.00234282
0.00225037
0.000317777
0.00239979
0.000403536
0.00226231
0.00217983
0.00228352
0.00233065
0.00224403
0.00233272
0.00242604
0.00200851
0.00210318
0.00245278
0.00202205
0.00214215
0.00207652
0.00238551
0.00200914
0.00234682
0.00237888
0.00228951
0.00223951
0.00217795
0.00229661
0.00225326
0.00221641
0.00231196
0.00238086
0.00230893
0.00221064
0.00232883
0.00180065
0.00234728
0.00227943
0.00229032
0.00222429
0.00232322
0.00227875
0.00215167
0.00241521
0.00211071
0.00242725
0.00199387
0.00238959
0.00231802
0.00235231
0.00220431
0.00220607
0.00227957
0.0023552
0.0023314
0.00225019
0.00226642
0.00234854
0.00205706
0.00232249
0.00228529
0.00183508
0.00193106
0.00226515
0.00192514
0.00216093
0.00238612
0.00192821
0.00238267
0.00233741
0.00227354
0.00199556
0.00233579
0.00221107
0.000358731
0.0022891
0.00222533
0.00238025
0.00224745
0.00225978
0.00209347
0.00227232
0.00245505
0.00236468
0.00224929
0.00235537
0.00233114
0.00226572
0.00236799
0.00233929
0.00224485
0.00238517
0.00217824
0.00229152
0.00230178
0.00225751
0.00229577
0.00211693
0.00237302
0.00229726
0.000126654
0.00240021
0.000417181
0.00231046
0.00228163
0.00155353
0.00226719
0.00231676
0.00226284
0.00238244
0.00227814
0.00240888
0.00234949
0.00225487
0.00212207
0.00238444
0.0023282
0.00226794
0.00229173
0.00220993
0.00198202
0.00236883
0.00236294
0.00232779
0.00197215
0.00226638
0.00233373
0.00223243
0.00227453
0.00226188
0.00224658
0.00227967
0.00228513
0.0022536
0.00241897
0.00229017
0.00196993
0.00213777
0.00227194
0.000348483
0.002326
0.00172107
0.00229039
0.0023813
0.00194938
0.00233268
0.00227071
0.00233647
0.00240837
0.0023525
0.00235853
0.00228769
0.00219824
0.000381119
0.0023536
0.00233241
0.00233629
0.00232632
0.0023852
0.00226008
0.0023883
0.002267
0.00194128
0.0022943
0.0020631
0.00229084
0.00226993
0.00234132
0.00225277
0.00230413
0.00233809
0.00229787
0.00196625
0.00232561
0.000150016
0.00213141
0.0023441
0.00226008
0.00228723
0.00229629
0.00197391
0.00194268
0.00238681
0.00228846
0.00210105
0.00229825
0.00227389
0.00216006
0.00245633
0.00240497
0.0023207
0.00229631
0.00238503
0.00228581
0.00224465
0.00233246
0.00181533
0.00237585
0.00225881
0.00232733
0.00234761
0.00197978
0.000241307
0.00228649
0.00212348
0.000449716
0.00233232
0.00229528
0.00233387
0.00226832
0.00238729
0.0022361
0.00228238
0.000200958
0.00226899
0.00236673
0.000191398
0.00224637
0.000121886
0.00227086
0.00238329
0.00219135
0.00221546
0.00227796
0.00243141
0.0021949
0.00233868
0.00235413
0.00229593
0.00230298
0.00221934
0.00199919
0.002286
0.00192411
0.00230287
0.00237809
0.00170634
0.00232926
0.00231556
0.0023605
0.00204124
0.00238662
0.00231988
0.00222434
0.0022926
0.00230131
0.00235443
0.00229681
0.00196668
0.0018297
0.00223749
0.00209808
0.00234221
0.00218208
0.00229751
0.00225147
0.00192318
0.00221802
0.00236916
0.00237397
0.00227367
0.00229772
0.00224414
0.00222222
0.00238053
0.00226279
0.00185994
0.00238378
0.00240609
0.00231092
0.00199615
0.00230117
0.00224974
0.0023877
0.00233307
0.00231392
0.00229205
0.00233353
0.0023309
0.00227344
0.00230858
0.00231455
0.00233908
0.00231922
0.000194108
0.00193796
0.00202504
0.0023335
0.00228319
0.00234777
0.00233505
0.00219961
0.00206913
0.00220987
0.00228567
0.0023637
0.0020325
0.0021031
0.00229137
0.00241293
0.0021947
0.00230375
0.00220654
0.00238243
0.00242268
0.00235776
0.00238545
0.00231481
0.00222416
0.00231734
0.00231561
0.00233584
0.00229746
0.00232457
0.00225834
0.00230484
0.00236381
0.00243272
0.00231149
0.00232237
0.00235099
0.00218692
0.002326
0.00219148
0.00220269
0.00174414
0.00225559
0.00196448
0.00236808
0.00231695
0.00219953
0.00217247
0.00238478
0.00219373
0.0023017
0.00221673
0.00232878
0.00233986
0.000447925
0.00238213
0.00223046
0.00231356
0.000402987
0.00232835
0.00224312
0.00173087
0.00217789
0.00216456
0.00204945
0.00233105
0.00238291
0.00232474
0.00225372
0.00237817
0.000401502
0.000427317
0.00230831
0.0023302
0.00236749
0.00236819
0.00234289
0.00222178
0.00216887
0.00226091
0.00215557
0.000405607
0.00232295
0.00178362
0.00214019
0.00232117
0.00236817
0.00232009
0.00222331
0.00236125
0.000136902
0.000149764
0.00243568
0.00222203
0.00230485
0.00229118
0.0021853
0.00232146
0.00232352
0.00216463
0.00237923
0.00229576
0.00227868
0.00205355
0.00233055
0.00220122
0.000393206
0.00199309
0.00237895
0.00235296
0.00237174
0.00221692
0.00214822
0.00231849
0.00227713
0.00222354
0.00206602
0.00223129
0.00237644
0.000177202
0.00200271
0.00211959
0.00226375
0.000394611
0.00230916
0.00224291
0.000446804
0.000296028
0.002333
0.00220611
0.00237014
0.00237455
0.00233902
0.00229744
0.00222832
0.00234401
0.00219317
0.00232076
0.00232197
0.000192145
0.000395357
0.00230597
0.000339387
0.00214256
0.00232331
0.00207244
0.00225032
0.0022928
0.00211973
0.00211296
0.00215822
0.00242865
0.00237083
0.00232124
0.00182603
0.00233292
0.00236402
0.00235544
0.00209113
0.00236741
0.00212923
0.00231012
0.0020533
0.000433783
0.00226113
0.00231934
0.00231809
0.000399698
0.0020702
0.00231715
0.0017753
0.000425537
0.0023592
0.00197584
0.00231589
0.00208756
0.00208889
0.00234614
0.00234716
0.00232364
0.0020342
0.00233393
0.00210441
0.00230299
0.0020293
0.00201725
0.00236207
0.00211904
0.00230129
0.00218481
0.00236526
0.00198403
0.00211649
0.0023469
0.00225247
0.00225972
0.000115243
0.00010562
0.00231313
0.00230041
0.00212912
0.00219375
0.0023461
0.00218264
0.00206145
0.0017846
0.000406461
0.00226077
0.00225367
0.00231562
0.00227115
0.00235496
0.00235624
0.00234342
0.00200561
0.00233585
0.00199356
0.00230278
0.00235674
0.00232193
0.00202321
0.00196896
0.00234433
0.00213256
0.0023101
0.00201397
0.000185317
0.00231328
0.00203418
0.00235636
0.0020549
0.00233751
0.000403446
0.00221528
0.00192381
0.000525741
0.00231314
0.00234834
0.00207462
0.000183619
0.00195002
0.00224854
0.00203907
0.0019806
0.0020912
0.00196748
0.00226528
0.00229974
0.00220299
0.00210126
0.00195946
0.00207997
0.00228538
0.00234302
0.00229909
0.00199995
0.00211204
0.00198305
0.00232658
0.00230433
0.000416272
0.00234826
0.000413368
0.00229974
0.00232466
0.00231
0.00228414
0.00230934
0.00210216
0.00233714
0.00195615
0.00232369
0.00201717
0.00229324
0.00232181
0.00229924
0.00212791
0.000194179
0.00230192
0.00223847
0.00193304
0.00231136
0.00230161
0.00203991
0.00232578
0.00019145
0.00193245
0.00227141
0.00235354
0.000193419
0.00200029
0.00223323
0.00223638
0.00234834
0.00192891
0.00230184
0.00231197
0.000326553
0.00228613
0.0022894
0.00229438
0.00210547
0.00229539
0.000207681
0.00229455
0.00223277
0.00190256
0.00231488
0.00231081
0.0019271
0.00229925
0.00229583
0.00211973
0.00220056
0.00212734
0.00230952
0.000183497
0.000189559
0.00211567
0.00195288
0.00218728
0.000177808
0.00229614
0.00228211
0.000390494
0.00231386
0.00211504
0.00226516
0.00226889
0.000344515
0.000189555
0.00217958
0.00223963
0.000419728
0.000125886
0.000123718
0.00197325
0.00198797
0.00215786
0.00192556
0.00225234
0.00229166
0.00226597
0.00227747
0.00228955
0.00229882
0.000192892
0.00227536
0.000215654
0.000218505
0.0023089
0.0022338
0.00188418
0.000191435
0.00226737
0.00187178
0.00225177
0.000403565
0.00188109
0.00040841
0.00230152
0.000400909
0.00199055
0.00177638
0.000413473
0.00226946
0.000422829
0.00226971
0.00220895
0.000375021
0.00041933
0.00216689
0.000425331
0.00219166
0.000324407
0.000430746
0.00209983
0.00169177
0.00214507
0.00216791
0.00028553
0.000194829
0.000434664
0.00227687
0.00204113
0.00230044
0.00227339
0.0021688
0.00220613
0.00211929
0.00228819
0.00206747
0.00227816
0.000397157
0.00214965
0.00172624
0.00226481
0.00217654
0.00227994
0.00204601
0.00198921
0.000177293
0.00186371
0.000436194
0.0022643
0.00223828
0.00228203
0.00209312
0.00225671
0.00182799
0.00215467
0.00228737
0.000198728
0.00217122
0.00219875
0.00180046
0.000453321
0.00207925
0.00213192
0.00208066
0.00219323
0.00227271
0.000395609
0.00225073
0.00220803
0.00039136
0.00225085
0.00226756
0.000411897
0.00215051
0.00220237
0.00224683
0.000434843
0.00210477
0.00223159
0.00220568
0.000388549
0.00225351
0.00207874
0.00213417
0.00227266
0.000175299
0.00224486
0.00204425
0.00222655
0.00226539
0.0022589
0.00206649
0.00188501
0.00224854
0.0017706
0.00226447
0.00175926
0.00224241
0.000196553
0.000457443
0.000449574
0.000202197
0.0021636
0.00041244
0.00221739
0.00214128
0.00176584
0.000387659
0.000175472
0.00178023
0.00225294
0.00219623
0.00223121
0.00186576
0.00214008
0.00214174
0.000384849
0.00223717
0.00186612
0.00222583
0.00219993
0.00211764
0.00222507
0.00216151
0.00190838
0.00207223
0.000430707
0.00225433
0.00219033
0.00205567
0.00216381
0.00171046
0.000189378
0.00203579
0.000360341
0.0001931
0.00222138
0.000196248
0.0022294
0.00215047
0.00019966
0.00222866
0.000446083
0.000203385
0.00218671
0.0020281
0.000378792
0.000207117
0.000210457
0.00215641
0.00209212
0.00219354
0.00214498
0.00205427
0.00217198
0.00202169
0.00216972
0.00015803
0.000169398
0.000212903
0.00210891
0.00212699
0.00220165
0.0004426
0.00215919
0.000396756
0.000453002
0.00212671
0.00217475
0.000448332
0.000364717
0.00195056
0.00166452
0.000214011
0.000435716
0.00221335
0.00017194
0.00200383
0.00212755
0.002136
0.00209625
0.00211332
0.000186215
0.000181956
0.00210209
0.00219484
0.000177689
0.00219625
0.00042544
0.00213994
0.00204382
0.000186388
0.000218052
0.000221261
0.00044224
0.00194204
0.00202757
0.00219868
0.00213504
0.00217016
0.00222396
0.00196764
0.00205686
0.00221798
0.00209545
0.0001727
0.00217371
0.00198768
0.00210387
0.00033306
0.0021564
0.000213547
0.002215
0.00217479
0.000164693
0.000348547
0.00209393
0.00207752
0.00207844
0.00205711
0.000218839
0.002081
0.000175214
0.000376148
0.000419411
0.00208335
0.00214734
0.00209773
0.00201453
0.00214743
0.00202283
0.000427559
0.00204518
0.000197359
0.000203174
0.00204047
0.000166636
0.00211364
0.000420579
0.00206234
0.00219416
0.00199962
0.00209137
0.00209879
0.00198668
0.0016056
0.00216664
0.000211412
0.000158713
0.00204324
0.000216674
0.000166995
0.00209924
0.00199931
0.00203122
0.000224678
0.00197998
0.000216638
0.000437968
0.00214257
0.0021854
0.000222541
0.000416447
0.00199533
0.000219906
0.00222942
0.00197188
0.000156367
0.00199524
0.00197237
0.00200808
0.000422293
0.0019376
0.00212374
0.000139407
0.000138311
0.00209062
0.0015732
0.00208756
0.00205648
0.00203694
0.00209522
0.00195308
0.00205417
0.000212733
0.00203021
0.00204458
0.00195473
0.00208307
0.00194574
0.00191676
0.000371698
0.00015968
0.00189667
0.00213483
0.00193183
0.00178224
0.0019315
0.000423875
0.000214147
0.00199442
0.00193528
0.00041848
0.00204338
0.000417371
0.000208011
0.00188573
0.00189437
0.00191736
0.00188019
0.000202768
0.000200266
0.00199089
0.000409871
0.00042788
0.000410642
0.00178024
0.0018091
0.00186991
0.00194898
0.00183425
0.000327429
0.000144931
0.00203603
0.00178293
0.001958
0.000418164
0.000208062
0.00198239
0.00201466
0.002072
0.00194646
0.00186164
0.00185616
0.00199929
0.000399469
0.000196274
0.00179782
0.000421657
0.00192612
0.000201515
0.00184749
0.000204931
0.000434532
0.000211968
0.00190536
0.000203902
0.00193257
0.000400789
0.00176364
0.0019201
0.000196832
0.000381561
0.00171655
0.00039627
0.00038523
0.000192149
0.00188394
0.000160272
0.0018348
0.000190268
0.00161864
0.00188569
0.00175119
0.000190548
0.000196688
0.000407656
0.000396296
0.000431198
0.000388029
0.000207566
0.000180216
0.00174984
0.0017893
0.00185033
0.00180683
0.00018219
0.000163187
0.000350329
0.00159301
0.00174558
0.00169281
0.00176236
0.00186676
0.0018325
0.00172231
0.000168563
0.000367752
0.00167547
0.000203768
0.000351742
0.0001602
0.000335941
0.00160637
0.00166262
0.000123969
0.000255679
0.000112189
0.000103766
0.000285513
0.000139906
0.000181041
0.00036643
0.000209791
0.000375204
0.000186412
0.000197983
0.000358352
0.00017585
0.000203414
0.000407357
0.00037331
0.000176756
0.000202692
0.000169617
0.000362759
0.00018349
0.000384601
0.000141552
0.000122915
0.00013745
0.000331228
0.000161326
0.000170084
0.000349085
0.0001902
0.00158482
0.00234446
0.00171585
0.00181425
0.00176404
0.00036077
0.000149183
0.0021229
0.00183847
0.00207032
0.000123404
0.0016434
0.00209142
0.00197599
0.00163621
0.000332895
0.000338248
0.00235597
0.00211615
0.000182744
0.000111787
0.000188045
0.00211112
0.00149176
0.00216157
0.00207355
0.000197469
0.00180042
0.00195118
0.00216858
0.000107387
0.000113013
0.000187062
0.000163497
0.000214387
0.000159584
0.000178597
0.00017004
0.00213055
0.000398455
0.00207362
0.00013087
0.00011
0.000121751
0.000413127
0.00191181
0.00212147
0.000145122
0.000129097
0.000136796
0.00210912
0.00214817
0.000315101
0.00180673
0.00235143
0.00162185
0.00149194
0.0003433
0.00014889
0.000486038
0.000328985
0.000505831
0.000354572
0.000326328
0.000339109
0.000109599
0.000106133
0.00208316
0.0019433
0.00146034
0.00235932
0.00018959
0.000273279
0.000310096
0.00143733
0.00156718
0.000291516
0.00192281
0.00149525
0.00158773
0.00195994
0.000121773
0.00150524
0.00160183
0.00162237
0.000310307
0.00238772
0.00164174
0.00196064
0.000132688
0.00165137
0.00240635
0.00160961
0.000244789
0.000150703
0.00198562
0.00195574
0.00241782
0.00148398
0.00147424
0.000129004
0.00200147
0.00239026
0.00148326
0.00239482
0.00200072
0.00031262
0.00203852
0.00239965
0.00168625
0.00207415
0.00174684
0.00153572
0.00154537
0.000102697
0.00204399
0.000279816
0.000134913
0.00241058
)
;

boundaryField
{
    patch0
    {
        type            nutkWallFunction;
        Cmu             0.09;
        kappa           0.41;
        E               9.8;
        value           nonuniform List<scalar> 
4010
(
0.00019283
0.00019283
0.000237863
0.000237863
0.000272076
0.000272076
0.00026311
0.00026311
0.000247187
0.000247187
0.000269827
0.000269827
0.000276005
0.000276005
0.00027681
0.00027681
0.00027679
0.00027679
0.00027009
0.00027009
0.000277981
0.000277981
0.000278069
0.000278069
0.000156319
0.000156319
0.000279407
0.000279407
0.000264534
0.000264534
0.000258475
0.000258475
0.000159021
0.000159021
0.000279244
0.000279244
0.000183323
0.000183323
0.000279983
0.000279983
0.000145322
0.000145322
0.000195093
0.000195093
0.000175714
0.000175714
0.000279609
0.000279609
0.000196696
0.000196696
0.000227424
0.000227424
0.000231971
0.000231971
0.000257768
0.000257768
0.000256524
0.000256524
0.00025855
0.00025855
0.000169324
0.000169324
0.000198268
0.000198268
0.000183541
0.000183541
0.000162874
0.000162874
0.000262037
0.000262037
0.000181773
0.000181773
0.000201131
0.000201131
0.000259812
0.000259812
0.000251216
0.000251216
0.000165328
0.000165328
0.000213435
0.000213435
0.000148487
0.000148487
0.000219668
0.000219668
0.000175119
0.000175119
0.00027074
0.00027074
0.000251787
0.000251787
0.000220085
0.000220085
0.000273742
0.000273742
0.000141084
0.000141084
0.000138788
0.000138788
0.000252995
0.000252995
0.000152501
0.000152501
0.000193709
0.000193709
0.000254253
0.000254253
0.000193136
0.000193136
0.000267963
0.000267963
0.000187024
0.000187024
0.000271788
0.000271788
0.000266333
0.000266333
0.000273387
0.000273387
0.000202123
0.000202123
0.000255048
0.000255048
0.000221214
0.000221214
0.000248164
0.000248164
0.000253913
0.000253913
0.000273778
0.000273778
0.00028131
0.00028131
0.000179496
0.000179496
0.000258603
0.000258603
0.000244281
0.000244281
0.000150935
0.000150935
0.000260702
0.000260702
0.000245826
0.000245826
0.000264475
0.000264475
0.000263595
0.000263595
0.000173884
0.000173884
0.000274864
0.000274864
0.000267256
0.000267256
0.000273951
0.000273951
0.000240788
0.000240788
0.000275008
0.000275008
0.000249913
0.000249913
0.00026627
0.00026627
0.000146345
0.000146345
0.000184381
0.000184381
0.00018406
0.00018406
0.000266637
0.000266637
0.000278485
0.000278485
0.000137128
0.000137128
0.000150235
0.000150235
0.00028183
0.00028183
0.000244885
0.000244885
0.000202831
0.000202831
0.000258189
0.000258189
0.000156582
0.000156582
0.000243926
0.000243926
0.000275118
0.000275118
0.000275839
0.000275839
0.000276714
0.000276714
0.000157737
0.000157737
0.000261958
0.000261958
0.000153004
0.000153004
0.000278682
0.000278682
0.000249399
0.000249399
0.000210933
0.000210933
0.000271217
0.000271217
0.00027192
0.00027192
0.000201972
0.000201972
0.000270882
0.000270882
0.000261233
0.000261233
0.000275551
0.000275551
0.00026553
0.00026553
0.00025595
0.00025595
0.000266615
0.000266615
0.000273975
0.000273975
0.000142088
0.000142088
0.000256346
0.000256346
0.00027583
0.00027583
0.000246122
0.000246122
0.000274665
0.000274665
0.000177145
0.000177145
6.30317e-05
6.30317e-05
0.000142626
0.000142626
0.000143692
0.000143692
0.000278272
0.000278272
0.000263055
0.000263055
0.000185669
0.000185669
0.000266801
0.000266801
0.000266054
0.000266054
6.64636e-05
6.64636e-05
0.000275527
0.000275527
0.000257943
0.000257943
2.33355e-05
2.33355e-05
0.000268618
0.000268618
0.000154911
0.000154911
0.000268626
0.000268626
0.000266589
0.000266589
0.000268378
0.000268378
0.000279897
0.000279897
0.000261424
0.000261424
0.000271375
0.000271375
0.000270226
0.000270226
2.18961e-05
2.18961e-05
2.18961e-05
1.63845e-05
1.63845e-05
1.63845e-05
0.000257231
0.000257231
0.000189494
0.000189494
0.000203604
0.000203604
0.000157245
0.000157245
0.000242758
0.000242758
0.000252923
0.000252923
0.000238646
0.000238646
3.36134e-05
3.36134e-05
3.36134e-05
0.000176601
0.000176601
0.000255553
0.000255553
0.000271927
0.000271927
0.000222245
0.000222245
6.28327e-05
6.28327e-05
0.000268725
0.000268725
0.000275997
0.000275997
2.85323e-05
2.85323e-05
0.000266183
0.000266183
0.000181313
0.000181313
0.000256335
0.000256335
6.40858e-05
6.40858e-05
0.000211566
0.000211566
0.000268799
0.000268799
0.000267386
0.000267386
4.83883e-05
4.83883e-05
0.000274449
0.000274449
0.000270953
0.000270953
0.000194535
0.000194535
0.00027681
0.00027681
0.000270168
0.000270168
0.000271778
0.000271778
0.000272123
0.000272123
0.000192574
0.000192574
0.000261825
0.000261825
3.49011e-05
3.49011e-05
0.000212861
0.000212861
0.000276627
0.000276627
0.000207051
0.000207051
0.000276977
0.000276977
0.000270632
0.000270632
0.000266415
0.000266415
0.000140635
0.000140635
0.000241693
0.000241693
0.000180712
0.000180712
0.000246506
0.000246506
0.000275035
0.000275035
0.000269008
0.000269008
0.000196673
0.000196673
0.000277107
0.000277107
0.000275916
0.000275916
0.000277072
0.000277072
0.000268554
0.000268554
3.42116e-05
3.42116e-05
3.42116e-05
0.000266878
0.000266878
0.000191201
0.000191201
0.000199389
0.000199389
0.000184001
0.000184001
3.90458e-05
3.90458e-05
0.000246354
0.000246354
0.000263212
0.000263212
0.000276936
0.000276936
0.000246957
0.000246957
0.000208685
0.000208685
0.00027714
0.00027714
0.000173389
0.000173389
0.000166931
0.000166931
1.46946e-05
1.46946e-05
1.46946e-05
6.52889e-05
6.52889e-05
0.000272626
0.000272626
0.00028034
0.00028034
0.000266226
0.000266226
0.000225949
0.000225949
0.000270257
0.000270257
0.000268201
0.000268201
0.000199398
0.000199398
0.000277413
0.000277413
0.000264874
0.000264874
0.000207927
0.000207927
0.000267013
0.000267013
0.000269691
0.000269691
0.000280471
0.000280471
0.000277092
0.000277092
0.000266751
0.000266751
0.000276461
0.000276461
0.000272201
0.000272201
0.00026388
0.00026388
0.000186521
0.000186521
3.29426e-05
3.29426e-05
0.000281779
0.000281779
0.000200096
0.000200096
3.20648e-05
3.20648e-05
0.000272095
0.000272095
1.97281e-05
1.97281e-05
1.97281e-05
0.00027979
0.00027979
0.000280662
0.000280662
0.000257218
0.000257218
3.48433e-05
3.48433e-05
3.48433e-05
0.000276128
0.000276128
0.000203508
0.000203508
0.000279363
0.000279363
0.000175845
0.000175845
4.01097e-05
4.01097e-05
0.000163022
0.000163022
0.000280185
0.000280185
0.000274186
0.000274186
0.000269958
0.000269958
0.000270625
0.000270625
0.000258134
0.000258134
5.77976e-05
5.77976e-05
0.000258574
0.000258574
0.000254646
0.000254646
0.000274755
0.000274755
0.000279924
0.000279924
0.000224055
0.000224055
0.000199987
0.000199987
0.000210786
0.000210786
0.000280728
0.000280728
0.00022592
0.00022592
0.000258527
0.000258527
0.000217711
0.000217711
0.000271292
0.000271292
0.000199277
0.000199277
0.00025921
0.00025921
0.000152961
0.000152961
0.000267641
0.000267641
0.000191527
0.000191527
4.90309e-05
4.90309e-05
0.000182692
0.000182692
0.000235565
0.000235565
0.000193272
0.000193272
0.000206059
0.000206059
0.000281372
0.000281372
0.000274552
0.000274552
0.000280117
0.000280117
0.000272455
0.000272455
0.000255466
0.000255466
0.000194703
0.000194703
4.64322e-05
4.64322e-05
2.6005e-05
2.6005e-05
2.6005e-05
0.000282417
0.000282417
0.000277235
0.000277235
0.000174958
0.000174958
0.000268199
0.000268199
0.00027635
0.00027635
5.84189e-05
5.84189e-05
0.000281799
0.000281799
0.000204551
0.000204551
0.000269228
0.000269228
0.000251425
0.000251425
0.000278041
0.000278041
0.000279255
0.000279255
0.000134312
0.000134312
0.000200141
0.000200141
0.000279581
0.000279581
0.000170342
0.000170342
0.000265295
0.000265295
0.000279403
0.000279403
3.55043e-05
3.55043e-05
3.55043e-05
0.000256185
0.000256185
0.000278665
0.000278665
0.00025631
0.00025631
0.000281129
0.000281129
0.000212022
0.000212022
0.00015831
0.00015831
0.000278128
0.000278128
0.000201073
0.000201073
0.000271644
0.000271644
0.000166734
0.000166734
0.000257084
0.000257084
0.000275248
0.000275248
0.000207065
0.000207065
0.000275407
0.000275407
0.000160379
0.000160379
0.000212425
0.000212425
0.000281639
0.000281639
0.000277833
0.000277833
0.000229956
0.000229956
0.000255017
0.000255017
0.000185506
0.000185506
0.000274351
0.000274351
0.000207796