/*--------------------------------*- C++ -*----------------------------------*\
  =========                 |
  \\      /  F ield         | OpenFOAM: The Open Source CFD Toolbox
   \\    /   O peration     | Website:  https://openfoam.org
    \\  /    A nd           | Version:  8
     \\/     M anipulation  |
\*---------------------------------------------------------------------------*/
FoamFile
{
    version     2.0;
    format      ascii;
    class       volScalarField;
    location    "0.45";
    object      p;
}
// * * * * * * * * * * * * * * * * * * * * * * * * * * * * * * * * * * * * * //

dimensions      [1 -1 -2 0 0 0 0];

internalField   nonuniform List<scalar> 
1924
(
0
-4.66247
-5.82564
-5.92445
-5.11867
-6.14202
-6.1701
-6.32305
-6.34523
-5.6668
-6.48086
-6.53621
141.133
-6.70575
-8.67907
-9.22799
145.989
-6.76173
12.1643
-6.93384
218.021
0.66777
13.7033
-6.98479
-6.52972
-4.62911
-5.58524
-5.22794
-5.67185
-5.39572
58.3606
-3.85655
21.6259
81.9205
-5.34924
1.69865
-8.8409
-5.65102
-5.20642
113.716
-6.49143
157.274
-5.38766
0.390537
-5.67463
-5.80343
-3.95679
-5.53653
365.433
235.653
3.57901
152.933
10.6174
3.44715
12.9261
-5.53008
-0.752086
-5.30062
-5.2659
-8.30134
3.97936
-9.58384
4.41385
-4.6324
3.70798
-5.5807
-9.54873
9.09672
-5.70002
3.69731
69.0018
-9.9689
-5.03371
-5.46587
-5.55377
40.4064
-5.69902
-5.62232
-5.54302
3.65357
-6.53047
-6.74209
-5.23112
188.931
28.1623
3.04431
-5.35829
-8.49993
284.758
99.1012
-9.25632
-7.46645
-0.400293
-7.68612
109.452
3.80003
-5.75292
-6.57562
-8.08758
49.7098
-5.89065
150.003
-8.0369
-7.60041
-6.54911
-5.89088
-5.93702
5.01656
-8.30206
-5.82385
-5.85942
-5.74884
-5.52994
-5.44018
-5.60032
182.783
-6.00092
-9.35646
1.57219
-5.70401
106.526
878.378
234.883
132.932
-10.0096
-7.96309
34.0306
-5.71644
-5.688
915.941
-5.92199
-6.03036
43.7002
-5.34083
141.154
-6.38187
-5.7221
-5.77912
-7.16057
-5.4783
-5.50099
-10.0546
-4.1463
17.7399
-6.27824
785.253
-0.247602
49.4184
-8.38062
1.58541
-5.14528
978.809
26.3612
-6.30556
-6.37776
-7.00621
1010.35
-5.73248
-6.05872
-4.66819
-5.43554
34.2853
-6.4729
845.293
-1.17393
-6.49204
-7.02955
1106.09
-5.7611
-5.85713
-1.29616
-6.52933
-5.94091
-7.81749
-5.60527
-3.42865
-5.39037
76.27
3.67226
-6.65619
-5.88869
-9.22027
-5.61793
-7.12718
402.392
-4.69504
21.8744
-8.56143
-5.88169
-5.53186
5.73812
-6.54409
-6.12125
-6.68021
-7.21631
928.213
-7.83405
-7.61394
-6.5537
1.95932
59.5004
-4.80992
-6.4971
-6.67448
-5.02507
-6.47398
-6.83249
39.3888
42.4111
53.8266
764.767
-5.97908
-7.533
-7.31419
-8.82854
-5.78799
-8.55413
1.62093
-6.86292
-5.74973
-4.65656
-5.11285
-6.57114
-7.75046
-6.69581
-8.18201
-6.24723
-6.15348
-7.37902
-1.90394
29.0176
-8.39822
-7.22385
56.283
-7.58556
-7.12097
-7.55459
-7.01329
-6.8143
849.659
-9.36423
-7.99536
-7.36021
26.1167
-2.46077
77.9042
-6.84267
-5.71334
-5.66895
-6.06934
-5.01113
807.149
-7.64703
-6.21555
-5.93834
-7.97796
-4.48587
-17.8224
-6.38858
-7.04291
-7.34798
-6.98472
-9.08447
-5.75685
-3.92761
-5.55373
140.89
-5.92726
14.8741
0.0469379
34.8589
-4.87895
5.66162
-8.1396
-8.35821
-6.63368
-6.88441
-7.92417
-6.4166
-15.743
112.606
962.166
-8.77919
-7.50427
125.971
-5.54702
-6.31802
837.805
-7.24628
-9.54938
-7.08403
-5.29304
-7.9992
-7.76383
224.674
3.42752
-8.20437
71.6809
-5.86047
-7.97437
948.079
-6.70024
-7.40093
-8.1468
-7.06473
-9.54671
97.8317
-7.24274
-17.3545
-5.6177
66.7201
1.90114
-7.60598
0.367771
-6.06686
100.855
-7.70002
-7.29145
-7.22666
-8.17025
-5.44792
22.2817
-6.80506
-1.47141
-6.10562
-6.38385
-7.94764
-8.51431
-5.84376
-6.46706
-16.3289
-9.26181
0.427497
-7.07873
-5.73101
-8.29324
-8.11218
-7.28878
-7.66332
-6.95661
-6.29206
-5.30908
-3.8025
51.4618
-8.46196
-9.82182
15.1063
-9.7968
1.97552
-8.00522
-7.56258
-4.90403
2.189
-7.75862
112.675
-6.13397
763.217
-7.5521
-3.78849
3.86955
-7.88942
-8.18806
-7.57899
-8.75013
-11.7332
-7.02234
0.517047
55.5981
-7.75011
-7.4264
-7.28646
-8.15117
-10.2629
-9.30932
-8.65194
109.312
-8.41619
-8.68894
-2.65263
-9.78815
-9.80649
-6.04958
-7.43223
-7.8435
-0.864222
-7.14875
-5.65527
-8.95916
-8.51823
-7.16092
-4.72368
0.504299
-9.477
-9.2289
-7.52445
40.1431
-6.87761
-1.25195
-6.55037
-9.49557
705.638
-5.91825
94.0678
8.23533
1186.72
-8.10741
-6.91833
-9.43749
-1.0427
-11.3931
-8.07857
0.555167
-7.62373
-7.22189
-8.04774
-8.21341
-6.62172
-8.12732
2.36291
-5.95176
-7.92463
41.8247
-6.81044
91.9712
-12.1388
-7.5963
-6.12742
-5.36752
0.377351
-10.4222
-8.34742
-6.53018
-8.56402
1.03987
-7.68747
-12.2667
-7.44639
13.0446
-7.40116
-8.74624
-1.48363
-10.7349
-7.73379
75.0142
-9.56041
14.5529
-8.34837
-5.83675
-9.91142
-8.71922
-8.95765
0.35875
-7.59894
-6.70906
-10.533
-9.4197
-7.1998
-8.61774
1.18612
-9.67753
-6.35637
0.45694
13.1905
1.40779
89.5271
-8.76495
-9.17914
-8.17049
-7.50735
-5.59724
-15.139
0.592818
-5.57725
-7.08197
45.5973
-6.27077
-5.41492
-8.0227
-9.50688
-9.64851
-8.19551
-7.86528
-8.2495
-9.23011
0.394815
-16.0734
-10.2659
-9.41708
-8.34651
-6.26131
29.2607
-8.13901
0.67914
-6.0682
-7.90471
-6.87461
-9.5666
-8.11859
-11.7045
-0.18214
-7.73983
-8.88801
23.9883
-2.03712
124.814
-8.07831
-8.26985
-9.01784
0.254922
-7.47922
-6.12635
-6.77478
-8.22129
-7.61507
-8.55803
-8.81311
0.556968
-9.26169
-7.7284
-9.84981
1.04109
-8.49402
-6.59192
-7.3523
-7.75297
-7.54436
-5.75841
3.31973
-7.59113
-8.76622
1.38972
-8.14258
0.290861
3.37381
107.265
-9.08196
-8.04437
23.4965
32.7458
-11.2551
-0.0562574
-3.14368
3.48479
-6.04313
-7.13608
-8.54811
-5.41762
-4.61223
-9.49199
-6.78536
-11.0646
-8.19461
-9.50566
0.593613
-9.22171
2.07789
3.38038
3.53852
59.6769
-5.34949
-6.49844
1.13968
25.7193
-8.54009
14.4652
11.3085
-6.50361
-6.12132
-5.53843
-0.040215
-7.02972
-8.58543
-8.64997
-8.05743
-5.93482
-8.63823
2.90355
111.964
-7.74918
1.69507
-0.758319
-9.72092
-7.85857
-8.50106
3.6861
3.33866
-8.02194
2.20602
-6.84012
-5.47544
5.6532
0.687528
5.41309
3.63818
3.4646
-7.61479
-8.95659
-6.06682
-9.14321
1.5004
3.87929
-8.19943
-8.89408
-6.78289
0.0918256
-8.6424
-7.20476
-6.34605
22.1283
2.22949
-7.51321
-9.05304
2.69371
-6.31836
-0.69392
-9.5151
-7.7871
100.205
3.78501
-3.42567
-7.39409
-6.74647
-6.23338
-3.76596
-8.47161
-5.68839
3.21334
-9.57648
-7.80452
2.2433
-10.3946
-8.70587
-6.14644
1.74741
0.165531
3.86292
-8.72916
128.691
-9.09243
-7.28363
-8.26949
-8.34196
-0.534661
-9.53037
-8.25638
-8.59769
-1.11727
-9.13957
-8.87325
17.6163
0.928137
-8.87818
-5.65052
-8.17377
3.13188
-8.4596
1.26789
-6.26142
-9.77347
1.95304
1.51117
3.37422
-5.86417
-7.08758
-8.95417
-5.61429
-14.0364
-10.4887
0.507715
-0.411539
-1.24733
-6.57582
6.20961
-6.45789
-8.83094
-6.99129
-8.35757
-9.72295
3.48595
2.67563
-7.86129
-8.00044
-9.56331
-9.12132
-2.46446
-8.79118
-9.09813
417.423
-7.64124
3.30341
-4.92845
-9.35058
-6.2929
-8.3673
1.02032
-8.28517
2.57547
-6.13915
-0.985862
-2.34655
-6.81434
1.82697
-8.4346
111.353
3.6208
-8.27081
-8.00895
-8.47463
-7.52748
-0.016932
0.61544
3.37706
-8.38753
498.41
-6.12617
-7.78484
-8.57051
1.36376
-8.46931
176.471
-6.06054
-10.2016
-6.49057
3.09502
-10.0495
167.114
90.0748
3.78991
93.2242
-7.33154
-9.04978
2.10161
90.6139
-1.99868
-9.47643
-10.9795
-9.28811
-8.4581
-9.67515
1.63695
3.53983
-9.20281
-6.72692
4.04094
-6.43107
81.8254
-0.719161
2.9508
0.09928
-7.23282
-3.60341
-8.17634
-8.53295
72.2664
33.8608
-8.29324
-5.41504
3.71218
772.354
-10.0604
-5.62726
-9.37707
-9.13043
-7.05156
-2.91959
2.55558
-8.05394
-1.51389
3.2508
-8.34272
-11.1389
-8.34772
115.54
-7.9708
109.616
-7.86921
-0.56069
-7.88837
3.1235
-7.936
2.01797
-6.34734
-9.43293
18.1901
-7.31898
-5.80189
-9.66224
-8.61196
-8.2257
-2.28945
2.37573
1.11625
-8.08603
-8.40167
-2.61297
-6.96267
-7.75504
3.36771
-8.51912
0.765625
6.93653
74.9195
-11.2675
-5.15592
-6.5677
-8.89289
12.8932
-10.9913
-8.56369
-1.29165
-5.97123
-7.56426
49.3
3.99508
0.360134
2.86685
-10.0463
3.39113
-4.45979
1.31646
1.68322
-8.53495
-8.51571
3.29363
-9.19172
-7.46459
-2.1976
-9.43955
-9.06791
2.68628
-10.2835
-6.79708
-0.138087
-8.46646
-3.80931
-8.45542
-6.26867
-9.89685
-7.28564
733.96
-6.52585
3.96284
-8.6415
-9.90931
984.782
1.21963
-8.59457
-3.17254
-10.4758
0.869433
-9.39812
-9.16303
3.09163
-6.48693
-10.7501
-7.82209
1.49848
-0.790793
3.54568
-6.17087
-9.90829
-8.70399
-7.8259
-5.58514
2.07018
-8.12414
3.45769
-10.9029
2.94878
2.4233
-7.1957
0.472339
2.39791
-9.8571
-1.57464
-5.44934
-6.71459
2.3803
366.382
-8.43661
-5.31421
-0.00404248
-10.3623
-5.74423
-8.31435
-5.46553
-8.40517
-6.68301
-9.13078
-9.5558
-2.48101
-7.02426
172.313
-8.88035
-8.07264
-7.96137
-7.77965
-10.8336
1.90465
-9.60325
2.6873
-5.89233
-0.615013
3.71798
-8.66196
-4.49459
-8.28625
3.28055
-8.70113
-8.42061
-8.74242
-5.31473
-7.68165
3.75788
3.63217
-9.07881
3.16824
-8.27859
-1.35117
-6.36119
-6.10716
-9.83956
-3.45421
627.553
-7.50856
2.52787
-6.94076
-8.58965
-9.33179
-8.71572
-2.19286
-10.4458
-6.05037
0.990387
-7.82846
83.6172
-10.0455
0.613191
-8.58358
-9.08216
-6.56927
3.71847
-7.41869
3.23091
3.90667
-8.04657
-3.08724
-7.94152
2.93602
-10.3866
1.55398
-5.32569
19.6135
0.201059
-9.59924
130.381
2.24415
129.592
2.80145
-10.4657
230.812
-7.25495
-0.277084
-7.73321
3.45539
-8.34989
-8.70135
-4.5666
-8.87956
3.36023
-6.78908
-0.868027
-6.29286
-8.22463
-9.35137
-5.01759
-8.20126
-8.88952
-9.42532
18.1129
-10.2405
-8.74101
1.95233
-1.58367
-7.78932
-9.11487
-4.07086
203.097
56.7889
0.729968
2.30997
-8.58137
-7.16926
-2.39227
0.325382
-6.4963
1.1044
-10.0248
-9.84972
2.5439
-7.32834
3.15711
1.38421
-10.3513
-0.136003
75.2238
-9.59001
-6.7743
-7.97321
283.294
-3.24852
3.04213
-10.2304
-8.02961
-7.87905
-7.71778
-8.00022
-8.48742
-0.693171
-5.43724
-8.25025
-8.81461
-8.14523
226.747
-6.71401
-7.01092
-8.05381
-1.36669
-8.98966
-5.51708
-4.49165
241.921
1.79599
-7.6305
-9.53148
3.63308
3.54261
-2.13144
-6.90501
102.504
-4.94899
2.28734
-9.76457
-8.15688
-9.17556
-10.2573
-7.39647
-7.46646
-8.99793
-8.65365
-8.19901
-2.94933
-8.45196
2.80389
-4.09945
-6.35684
-7.2878
-7.17249
-8.57642
-8.98422
0.500052
-8.61968
2.14863
0.0721324
14.7089
2.67314
-6.93375
-9.18601
-5.76554
-7.38569
3.3556
-9.85713
3.25448
-3.76621
-0.403366
-8.45549
-8.4952
3.82914
-10.1874
-0.955594
-5.42425
-5.66832
-8.05484
-1.60489
184.804
2.58688
0.904026
-7.24323
-8.12295
-9.99057
-8.12092
-2.33364
-10.0336
-5.84441
-5.49378
-4.86034
-8.11215
-9.34409
-6.26223
-8.66541
3.04085
0.208537
-3.10836
1.4607
-5.98387
-7.66361
3.89661
1.85561
-8.58843
-9.90867
-7.36712
2.92693
-9.48563
4.07463
4.0642
-7.51533
2.55611
-4.51794
-8.14421
-0.253616
-6.5978
-8.45315
2.45749
-9.96735
-8.05696
-7.90672
13.7868
-8.24206
-0.782291
-6.15132
-7.17183
-10.1527
-9.21901
-9.40864
-1.39892
0.629534
-6.24528
-7.82398
-7.67585
3.45165
-2.09516
-10.0261
4.04075
3.54596
2.20122
-3.86767
-6.39818
-5.37323
-2.84353
-5.35037
325.676
-8.39316
-7.59539
-9.57967
-9.97196
-8.94864
-8.30717
2.68993
-9.02097
225.835
-8.07484
-8.21701
3.99208
-6.59322
-5.0665
113.812
3.25704
-8.08136
-7.43188
-3.58985
-8.40194
1.02851
1.71033
3.15428
-7.9416
-10.0403
-8.16218
263.561
-5.5481
-9.55788
-9.2884
2.06938
-9.76078
1.30589
-7.99536
-0.0131167
3.73979
-4.55589
-7.64196
-7.03063
-6.79806
-0.49417
-7.48191
186.002
-5.67839
-9.99111
881.418
-6.75026
-1.03012
2.50547
-9.09404
-9.14084
-8.2536
0.430919
-8.66718
-1.63716
-5.90833
722.988
-7.3422
-9.95135
-2.30986
-8.68739
2.9405
-9.84861
10.9656
295.38
-9.86266
-4.27945
-8.07544
319.007
218.376
-8.09413
-5.63593
-3.0245
284.687
-9.25729
2.82834
2.38633
3.93741
-7.01066
-7.99893
-5.09517
-7.98185
-8.21528
-9.99859
-9.91397
-9.90571
0.854632
-8.82264
0.137044
-8.58452
-9.9298
-8.4512
3.36345
3.45849
-9.45092
-3.73313
-8.0784
-0.332382
129.281
-7.99617
-0.850581
-9.91823
-1.43383
-9.31637
5.00634
-7.86161
412.866
1001.25
-8.13856
-9.56457
-2.0827
3.92105
484.601
-4.84532
2.7805
1.78865
-2.77952
0.572997
-8.29472
-7.07312
-7.78661
3.1677
2.13711
-7.65486
-6.34691
-9.55509
-6.85572
1.404
3.0663
3.65325
-9.10547
-9.92337
3.65004
-9.67358
-7.23581
-7.33079
-9.68078
-8.30296
-6.11552
-9.86243
-3.48367
-9.42761
834.35
-8.58863
2.67037
-9.94158
-9.75012
-7.79702
-4.38417
-5.60982
-7.4605
-5.5384
895.635
-8.88133
-9.64542
-7.58709
-9.21227
-5.78311
0.991363
-9.85554
-5.95369
-5.93075
3.54041
-5.3319
-8.15676
-5.58966
2.44811
-9.88322
-8.40502
3.92902
-9.9597
-9.44205
-9.74803
-4.14479
-7.9452
-5.44697
-9.92835
-8.22686
2.01225
-8.83695
-8.97421
1.65339
-8.00189
-7.78363
2.74159
-8.02949
2.85506
-9.17877
-6.23117
-6.32886
653.053
1.26187
-9.87572
3.83481
-8.16106
-9.55533
242.82
-8.97757
-4.92944
-9.90224
-8.44837
3.8796
-6.52463
-9.79592
-9.71362
-7.3531
271.355
164.433
3.28445
710.295
-9.91423
3.37772
-6.61932
-9.46245
-6.88897
-9.2404
-9.54372
-8.24873
16.4332
-7.73364
-5.41532
-5.31243
-9.2706
-9.78118
830.751
-6.7285
-7.06582
2.33506
-6.4299
0.41417
2.72681
-0.0390705
-8.64321
3.56465
635.01
476.488
-0.523489
-8.70262
1039.31
-9.3546
-5.95422
176.606
-1.05112
-9.60405
-1.63463
-7.96015
293.64
-2.27457
-4.71708
169.843
-9.72614
-9.89095
1025.8
-6.93624
-2.95525
-7.43968
3.09208
-8.76691
-7.30016
-9.9832
-5.76574
-9.91669
-8.46227
2.50467
-7.99839
0.848533
-9.98378
401.841
-9.01521
-8.1821
-7.80723
2.99287
2.0727
3.7452
902.238
-3.63946
-8.52959
-8.36023
-8.08615
-5.37242
-9.14323
2.62461
-9.40368
-8.57205
-7.16734
-8.11814
-9.53739
2.97964
-10.1368
-7.83441
-9.51963
-9.79181
-9.61868
-8.29058
1.25875
-7.53615
-6.78121
1.64358
-8.82514
-8.78019
-7.62021
-10.0412
-8.30223
-9.34299
-4.2795
-9.99103
-7.16851
-6.62141
1.99931
-7.79709
-5.19731
-10.0334
-8.39402
38.7833
-7.39542
-7.769
-7.01108
-8.96712
-7.89611
-9.88355
687.8
-9.26095
819.609
-9.04674
2.8866
-8.9434
1102.94
-9.7322
-9.75661
-7.30336
-6.29811
1038.04
-7.54424
-9.19731
891.136
3.48811
3.65831
7.77719
-8.1131
-8.36689
-8.43133
616.206
-8.2643
-8.324
2.32194
-8.63304
3.30845
-7.92062
-7.32108
-9.31868
-7.67501
-6.13028
3.21831
-8.00119
-4.83435
-8.21641
-7.1855
-8.15456
-6.92408
683.23
0.56625
-9.63946
395.018
0.12149
-8.44797
-0.351606
-8.0299
-9.3678
-0.863629
-8.74833
-9.5558
-1.42803
-7.71278
-8.29746
2.61225
-2.04909
-2.71669
-6.79007
0.911731
-7.83423
-9.45445
-5.76003
-7.48342
-9.74134
288.594
251.894
195.066
-3.40047
-6.5426
-9.007
-8.26322
-10.0706
-7.36269
1028.54
-10.1451
-7.10347
-8.07588
-10.1062
2.87499
3.02941
610.813
-4.05531
-9.97857
-8.56065
3.57863
-8.24016
-7.54249
-7.88896
-8.40375
-6.98178
0.995465
1.39512
-9.12423
-8.37531
1.76855
-9.16785
-5.29319
-7.65698
-5.60963
1108.08
-10.2487
-9.85037
-9.36361
2.9307
-8.09425
-9.08785
-8.0064
-8.19001
-8.65306
-8.37862
-6.73897
-8.82323
-7.2938
2.112
-8.7174
-8.43464
-6.40093
3.19119
-8.442
-4.63782
-8.89597
401.414
251.119
605.775
-8.46145
-7.17819
-7.72519
-8.25132
-9.67289
-8.43637
1102.01
3.42423
-7.81881
-7.83729
-8.94598
-9.21501
-6.9406
-8.50396
-8.07308
-9.85344
-6.61927
-7.71257
-7.75185
-7.93727
2.4227
-8.81357
-8.27155
-7.48714
-8.49921
-6.09539
-9.30307
-8.62414
-9.48709
881.83
-8.79003
-5.12856
2.70238
-7.37491
-10.0982
3.51027
-8.84649
-8.1865
-8.36586
-9.89787
-7.14568
-9.4894
-9.17608
-9.02638
-8.56556
-10.2228
-8.40647
-6.82867
-10.1372
-8.58198
-7.91263
464.664
-7.57153
-9.59186
-7.68087
-8.13044
-6.36934
-8.70698
3.11193
2.95306
-8.92185
814.528
-8.93091
-8.77281
-8.54143
-8.58072
-8.02068
-8.5515
-9.99208
-8.59988
-9.08784
-7.03789
-8.64421
-7.34989
-8.51426
1017.1
1092.26
-7.76789
-8.63806
-8.57131
3.25318
29.8788
-8.42052
-9.3022
-8.98981
-9.35041
-8.24514
-8.84274
-5.67916
-5.54054
-7.87109
-7.55204
-7.24522
-6.60131
-8.22209
-8.35847
-5.96351
-8.54022
-8.60519
-8.0859
-7.65275
3.16607
-7.44975
-8.91695
-6.81735
809.746
672.639
-9.17392
-7.7479
-8.67915
-9.71766
-9.86468
-9.07041
-8.71794
-8.74026
-8.73902
-6.49984
-8.71031
-8.78256
-7.94568
-8.49171
-7.03057
-7.97897
-6.25421
-8.36549
-8.6509
-8.54439
-8.98464
-9.11167
-8.86338
-8.07762
-8.99088
-8.67766
-7.24151
-9.45223
-8.20037
-7.83484
-7.44897
-6.29745
-6.54784
-6.45847
-9.23464
3.45625
-9.14108
-8.0526
-7.65488
-8.93165
-8.79775
-8.62616
-9.607
-9.58739
-9.47211
-8.79434
-8.82904
-8.7309
-7.93124
-8.86125
-9.06963
-8.8256
-6.72367
-8.77121
-7.84148
-7.75865
-7.5685
-9.01706
-8.97983
-6.9401
-9.33117
-8.88878
-7.15315
-8.932
-8.99834
-7.3625
-7.92081
-9.19173
-9.24395
-9.16091
-8.95709
-9.05118
875.007
1007.95
-9.20617
1072.46
-9.14422
1078.92
-6.91682
-6.99501
-8.92089
-6.77665
-6.69462
-6.19611
-7.20728
-7.13175
-5.89349
-6.01154
-9.29721
-9.33776
-9.73138
-9.28331
-9.23679
-9.40907
-9.37523
-9.21926
-7.80416
-7.73403
-7.61295
-7.5422
-7.34055
-7.41368
-9.49873
-9.02344
-5.65368
-9.09365
-9.23107
-9.15252
3.37548
3.41858
493.302
76.638
407.132
3.40005
3.21176
0.910338
3.74504
3.12807
3.34329
903.226
-5.73027
458.032
293.747
3.33045
439.379
0.879276
683.839
408.748
2.21405
524.501
11.5133
29.6736
461.919
4.0764
3.97903
563.013
628.859
108.74
635.844
489.836
629.992
225.071
396.553
560.849
468.947
498.539
488.264
524.911
68.8144
1.05142
446.926
9.54928
9.95183
618.325
571.139
503.385
4.97128
-5.7951
198.313
1139.77
1118.21
506.746
681.321
687.616
563.223
606.427
684.701
685.119
1326.42
1202.45
293.582
57.2996
293.336
-5.88519
548.779
438.403
11.8099
348.235
82.2151
396.534
85.9276
293.493
118.937
4.43536
443.506
210.639
244.748
27.3772
382.306
-6.88312
32.1159
74.1517
4.12131
217.251
-7.0666
273.79
-2.09799
449.245
3.39608
70.7212
-7.17878
366.971
166.855
1371.92
49.2964
-6.74271
289.966
-6.99841
14.5199
420.517
2.51296
-6.95908
53.4219
1.15596
111.108
135.258
208.765
151.575
1.41706
1249.14
1237.7
-7.04273
)
;

boundaryField
{
    patch0
    {
        type            calculated;
        value           nonuniform List<scalar> 
4010
(
7.10543e-15
7.10543e-15
-4.66247
-4.66247
-5.82564
-5.82564
-5.92445
-5.92445
-5.11867
-5.11867
-6.14202
-6.14202
-6.1701
-6.1701
-6.32305
-6.32305
-6.34523
-6.34523
-5.6668
-5.6668
-6.48086
-6.48086
-6.53621
-6.53621
141.133
141.133
-6.70575
-6.70575
-8.67907
-8.67907
-9.22799
-9.22799
145.989
145.989
-6.76173
-6.76173
12.1643
12.1643
-6.93384
-6.93384
218.021
218.021
0.66777
0.66777
13.7033
13.7033
-6.98479
-6.98479
-6.52972
-6.52972
-4.62911
-4.62911
-5.58524
-5.58524
-5.22794
-5.22794
-5.67185
-5.67185
-5.39572
-5.39572
58.3606
58.3606
-3.85655
-3.85655
21.6259
21.6259
81.9205
81.9205
-5.34924
-5.34924
1.69865
1.69865
-8.8409
-8.8409
-5.65102
-5.65102
-5.20642
-5.20642
113.716
113.716
-6.49143
-6.49143
157.274
157.274
-5.38766
-5.38766
0.390537
0.390537
-5.67463
-5.67463
-5.80343
-5.80343
-3.95679
-3.95679
-5.53653
-5.53653
365.433
365.433
235.653
235.653
3.57901
3.57901
152.933
152.933
10.6174
10.6174
3.44715
3.44715
12.9261
12.9261
-5.53008
-5.53008
-0.752086
-0.752086
-5.30062
-5.30062
-5.2659
-5.2659
-8.30134
-8.30134
3.97936
3.97936
-9.58384
-9.58384
4.41385
4.41385
-4.6324
-4.6324
3.70798
3.70798
-5.5807
-5.5807
-9.54873
-9.54873
9.09672
9.09672
-5.70002
-5.70002
3.69731
3.69731
69.0018
69.0018
-9.9689
-9.9689
-5.03371
-5.03371
-5.46587
-5.46587
-5.55377
-5.55377
40.4064
40.4064
-5.69902
-5.69902
-5.62232
-5.62232
-5.54302
-5.54302
3.65357
3.65357
-6.53047
-6.53047
-6.74209
-6.74209
-5.23112
-5.23112
188.931
188.931
28.1623
28.1623
3.04431
3.04431
-5.35829
-5.35829
-8.49993
-8.49993
284.758
284.758
99.1012
99.1012
-9.25632
-9.25632
-7.46645
-7.46645
-0.400293
-0.400293
-7.68612
-7.68612
109.452
109.452
3.80003
3.80003
-5.75292
-5.75292
-6.57562
-6.57562
-8.08758
-8.08758
49.7098
49.7098
-5.89065
-5.89065
150.003
150.003
-8.0369
-8.0369
-7.60041
-7.60041
-6.54911
-6.54911
-5.89088
-5.89088
-5.93702
-5.93702
5.01656
5.01656
-8.30206
-8.30206
-5.82385
-5.82385
-5.85942
-5.85942
-5.74884
-5.74884
-5.52994
-5.52994
-5.44018
-5.44018
-5.60032
-5.60032
182.783
182.783
-6.00092
-6.00092
-9.35646
-9.35646
1.57219
1.57219
-5.70401
-5.70401
106.526
106.526
878.378
878.378
234.883
234.883
132.932
132.932
-10.0096
-10.0096
-7.96309
-7.96309
34.0306
34.0306
-5.71644
-5.71644
-5.688
-5.688
915.941
915.941
-5.92199
-5.92199
-6.03036
-6.03036
43.7002
43.7002
-5.34083
-5.34083
141.154
141.154
-6.38187
-6.38187
-5.7221
-5.7221
-5.77912
-5.77912
-7.16057
-7.16057
-5.4783
-5.4783
-5.50099
-5.50099
-10.0546
-10.0546
-4.1463
-4.1463
-3.60462
17.7399
17.7399
44.09
-6.27824
-6.27824
785.253
785.253
-0.247602
-0.247602
49.4184
49.4184
-8.38062
-8.38062
1.58541
1.58541
-5.14528
-5.14528
978.809
978.809
1072.55
26.3612
26.3612
-6.30556
-6.30556
-6.37776
-6.37776
-7.00621
-7.00621
1010.35
1010.35
-5.73248
-5.73248
-6.05872
-6.05872
-4.66819
-4.66819
-5.43554
-5.43554
34.2853
34.2853
-6.4729
-6.4729
845.293
845.293
-1.17393
-1.17393
-6.49204
-6.49204
-7.02955
-7.02955
1106.09
1106.09
-5.7611
-5.7611
-5.85713
-5.85713
-1.29616
-1.29616
-6.52933
-6.52933
-5.94091
-5.94091
-7.81749
-7.81749
-5.60527
-5.60527
-3.42865
-3.42865
-5.39037
-5.39037
76.27
76.27
3.67226
3.67226
-6.65619
-6.65619
-5.88869
-5.88869
-9.22027
-9.22027
-5.61793
-5.61793
-7.12718
-7.12718
402.392
402.392
-4.69504
-4.69504
21.8744
21.8744
-8.56143
-8.56143
-5.88169
-5.88169
-5.53186
-5.53186
5.73812
5.73812
-6.54409
-6.54409
-6.12125
-6.12125
-6.68021
-6.68021
-7.21631
-7.21631
928.213
928.213
1021.95
-7.83405
-7.83405
-7.61394
-7.61394
-6.5537
-6.5537
1.95932
1.95932
59.5004
59.5004
-4.80992
-4.80992
-6.4971
-6.4971
-6.67448
-6.67448
-5.02507
-5.02507
-6.47398
-6.47398
-6.83249
-6.83249
39.3888
39.3888
42.4111
42.4111
53.8266
53.8266
54.4637
764.767
764.767
-5.97908
-5.97908
-7.533
-7.533
-7.31419
-7.31419
-8.82854
-8.82854
-5.78799
-5.78799
-8.55413
-8.55413
1.62093
1.62093
-6.86292
-6.86292
-5.74973
-5.74973
-4.65656
-4.65656
-5.11285
-5.11285
-6.57114
-6.57114
-7.75046
-7.75046
-6.69581
-6.69581
-8.18201
-8.18201
-6.24723
-6.24723
-6.15348
-6.15348
-7.37902
-7.37902
-1.90394
-1.90394
29.0176
29.0176
-8.39822
-8.39822
-7.22385
-7.22385
56.283
56.283
-7.58556
-7.58556
-7.12097
-7.12097
-6.05374
-7.55459
-7.55459
-7.01329
-7.01329
-6.8143
-6.8143
849.659
849.659
943.399
-9.36423
-9.36423
-7.99536
-7.99536
-7.36021
-7.36021
26.1167
26.1167
-2.46077
-2.46077
77.9042
77.9042
-6.84267
-6.84267
-5.71334
-5.71334
-5.66895
-5.66895
-6.06934
-6.06934
-5.01113
-5.01113
807.149
807.149
-7.64703
-7.64703
-6.21555
-6.21555
-5.93834
-5.93834
-7.97796
-7.97796
-4.48587
-4.48587
-17.8224
-17.8224
-6.38858
-6.38858
-7.04291
-7.04291
-7.34798
-7.34798
-6.98472
-6.98472
-9.08447
-9.08447
-5.75685
-5.75685
-3.92761
-3.92761
-5.55373
-5.55373
140.89
140.89
-5.92726
-5.92726
14.8741
14.8741
0.0469379
0.0469379
34.8589
34.8589
-4.87895
-4.87895
5.66162
5.66162
-8.1396
-8.1396
-8.35821
-8.35821
-6.63368
-6.63368
-6.88441
-6.88441
-7.92417
-7.92417
-6.4166
-6.4166
-15.743
-15.743
112.606
112.606
962.166
962.166
1028.95
-8.77919
-8.77919
-7.50427
-7.50427
125.971
125.971
-5.54702
-5.54702
-6.31802
-6.31802
837.805
837.805
-7.24628
-7.24628
-9.54938
-9.54938
-7.08403
-7.08403
-5.29304
-5.29304
-7.9992
-7.9992
-7.76383
-7.76383
224.674
224.674
3.42752
3.42752
-8.20437
-8.20437
71.6809
71.6809
-5.86047
-5.86047
-7.97437
-7.97437
948.079
948.079
1037.86
-6.70024
-6.70024
-7.40093
-7.40093
-8.1468
-8.1468
-7.06473
-7.06473
-9.54671
-9.54671
97.8317
97.8317
-7.24274
-7.24274
-17.3545
-17.3545
-5.6177
-5.6177
66.7201
66.7201
1.90114
1.90114
-7.60598
-7.60598
0.367771
0.367771
-6.06686
-6.06686
100.855
100.855
-7.70002
-7.70002
-7.29145
-7.29145
-7.22666
-7.22666
-8.17025
-8.17025
-5.44792
-5.44792
22.2817
22.2817
-6.80506
-6.80506
-1.47141
-1.47141
-6.10562
-6.10562
-6.38385
-6.38385
-7.94764
-7.94764
-8.51431
-8.51431
-5.84376
-5.84376
-6.46706
-6.46706
-16.3289
-16.3289
-9.26181
-9.26181
0.427497
0.427497
-7.07873
-7.07873
-5.73101
-5.73101
-8.29324
-8.29324
-8.11218
-8.11218
-7.28878
-7.28878
-7.66332
-7.66332
-6.95661
-6.95661
-6.29206
-6.29206
-5.30908
-5.30908
-3.8025
-3.8025
51.4618
51.4618
-8.46196
-8.46196
-9.82182
-9.82182
15.1063
15.1063
-9.7968
-9.7968
1.97552
1.97552
-8.00522
-8.00522
-7.56258
-7.56258
-4.90403
-4.90403
2.189
2.189
-7.75862
-7.75862
112.675
112.675
-6.13397
-6.13397
763.217
763.217
-7.5521
-7.5521
-3.78849
-3.78849
3.86955
3.86955
-7.88942
-7.88942
-8.18806
-8.18806
-7.57899
-7.57899
-8.75013
-8.75013
-11.7332
-11.7332
-7.02234
-7.02234
0.517047
0.517047
55.5981
55.5981
-7.75011
-7.75011
-7.4264
-7.4264
-7.28646
-7.28646
-8.15117
-8.15117
-10.2629
-10.2629
-9.30932
-9.30932
-8.65194
-8.65194
109.312
109.312
-8.41619
-8.41619
-8.68894
-8.68894
-2.65263
-2.65263
-9.78815
-9.78815
-9.80649
-9.80649
-6.04958
-6.04958
-7.43223
-7.43223
-7.8435
-7.8435
-0.864222
-0.864222
-7.14875
-7.14875
-5.65527
-5.65527
-8.95916
-8.95916
-8.51823
-8.51823
-7.16092
-7.16092
-4.72368
-4.72368
0.504299
0.504299
-9.477
-9.477
-9.2289
-9.2289
-7.52445
-7.52445
40.1431
40.1431
40.9326
-6.87761
-6.87761
-1.25195
-1.25195
-6.55037
-6.55037
-9.49557
-9.49557
705.638
705.638
-5.91825
-5.91825
94.0678
94.0678
8.23533
8.23533
1186.72
1186.72
1235.09
-8.10741
-8.10741
-6.91833
-6.91833
-9.43749
-9.43749
-1.0427
-1.0427
-11.3931
-11.3931
-8.07857
-8.07857
0.555167
0.555167
-7.62373
-7.62373
-7.22189
-7.22189
-8.04774
-8.04774
-8.21341
-8.21341
-6.62172
-6.62172
-8.12732
-8.12732
2.36291
2.36291
-5.95176
-5.95176
-7.92463
-7.92463
41.8247
41.8247
-6.81044
-6.81044
91.9712
91.9712
-12.1388
-12.1388
-7.5963
-7.5963
-6.12742
-6.12742
-5.36752
-5.36752
0.377351
0.377351
-10.4222
-10.4222
-8.34742
-8.34742
-6.53018
-6.53018
-8.56402
-8.56402
1.03987
1.03987
-7.68747
-7.68747
-12.2667
-12.2667
-7.44639
-7.44639
13.0446
13.0446
-7.40116
-7.40116
-8.74624
-8.74624
-1.48363
-1.48363
-10.7349
-10.7349
-7.73379
-7.73379
75.0142
75.0142
-9.56041
-9.56041
14.5529
14.5529
29.9069
-8.34837
-8.34837
-5.83675
-5.83675
-9.91142
-9.91142
-8.71922
-8.71922
-8.95765
-8.95765
0.35875
0.35875
-7.59894
-7.59894
-6.70906
-6.70906
-10.533
-10.533
-9.4197
-9.4197
-7.1998
-7.1998
-8.61774
-8.61774
1.18612
1.18612
-9.67753
-9.67753
-6.35637
-6.35637
0.45694
0.45694
13.1905
13.1905
1.40779
1.40779
89.5271
89.5271
-8.76495
-8.76495
-9.17914
-9.17914
-8.17049
-8.17049
-7.50735
-7.50735
-5.59724
-5.59724
-15.139
-15.139
0.592818
0.592818
-5.57725
-5.57725
-7.08197
-7.08197
45.5973
45.5973
-6.27077
-6.27077
-5.41492
-5.41492
-8.0227
-8.0227
-9.50688
-9.50688
-9.64851
-9.64851
-8.19551
-8.19551
-7.86528
-7.86528
-8.2495
-8.2495
-9.23011
-9.23011
0.394815
0.394815
-16.0734
-16.0734
-10.2659
-10.2659
-9.41708
-9.41708
-8.34651
-8.34651
-6.26131
-6.26131
29.2607
29.2607
-8.13901
-8.13901
0.67914
0.67914
-6.0682
-6.0682
-7.90471
-7.90471
-6.87461
-6.87461
-9.5666
-9.5666
-8.11859
-8.11859
-11.7045
-11.7045
-0.18214
-0.18214
-7.73983
-7.73983
-8.88801
-8.88801
23.9883
23.9883
-2.03712
-2.03712
124.814
124.814
-8.07831
-8.07831
-8.26985
-8.26985
-9.01784
-9.01784
0.254922
0.254922
-7.47922
-7.47922
-6.12635
-6.12635
-6.77478
-6.77478
-8.22129
-8.22129
-7.61507
-7.61507
-8.55803
-8.55803
-8.81311
-8.81311
0.556968
0.556968
-9.26169
-9.26169
-7.7284
-7.7284
-9.84981
-9.84981
1.04109
1.04109
-8.49402
-8.49402
-6.59192
-6.59192
-7.3523
-7.3523
-7.75297
-7.75297
-7.54436
-7.54436
-5.75841
-5.75841
3.31973
3.31973
-7.59113
-7.59113
-8.76622
-8.76622
1.38972
1.38972
-8.14258
-8.14258
0.290861
0.290861
3.37381
3.37381
107.265
107.265
-9.08196
-9.08196
-8.04437
-8.04437
23.4965
23.4965
32.7458
32.7458
-11.2551
-11.2551
-0.0562574
-0.0562574
-3.14368
-3.14368
3.48479
3.48479
-6.04313
-6.04313
-7.13608
-7.13608
-8.54811
-8.54811
-5.41762
-5.41762
-4.61223
-4.61223
-9.49199
-9.49199
-6.78536
-6.78536
-11.0646
-11.0646
-8.19461
-8.19461
-9.50566
-9.50566
0.593613
0.593613
-9.22171
-9.22171
2.07789
2.07789
3.38038
3.38038
3.53852
3.53852
59.6769
59.6769
-5.34949
-5.34949
-6.49844
-6.49844
1.13968
1.13968
25.7193
25.7193
-8.54009
-8.54009
14.4652
14.4652
11.3085
11.3085
-6.50361
-6.50361
-6.12132
-6.12132
-5.53843
-5.53843
-0.040215
-0.040215
-7.02972
-7.02972
-8.58543
-8.58543
-8.64997
-8.64997
-8.05743
-8.05743
-5.93482
-5.93482
-8.63823
-8.63823
2.90355
2.90355
111.964
111.964
-7.74918
-7.74918
1.69507
1.69507
-0.758319
-0.758319
-9.72092
-9.72092
-7.85857
-7.85857
-8.50106
-8.50106
3.6861
3.6861
3.33866
3.33866
-8.02194
-8.02194
2.20602
2.20602
-6.84012
-6.84012
-5.47544
-5.47544
5.6532
5.6532
0.687528
0.687528
5.41309
5.41309
3.63818
3.63818
3.4646
3.4646
-7.61479
-7.61479
-8.95659
-8.95659
-6.06682
-6.06682
-9.14321
-9.14321
1.5004
1.5004
3.87929
3.87929
-8.19943
-8.19943
-8.89408
-8.89408
-6.78289
-6.78289
0.0918256
0.0918256
-8.6424
-8.6424
-7.20476
-7.20476
-6.34605
-6.34605
22.1283
22.1283
2.22949
2.22949
-7.51321
-7.51321
-9.05304
-9.05304
2.69371
2.69371
-6.31836
-6.31836
-0.69392
-0.69392
-9.5151
-9.5151
-7.7871
-7.7871
100.205
100.205
3.78501
3.78501
-3.42567
-3.42567
-7.39409
-7.39409
-6.74647
-6.74647
-6.23338
-6.23338
-3.76596
-3.76596
-8.47161
-8.47161
-5.68839
-5.68839
3.21334
3.21334
-9.57648
-9.57648
-7.80452
-7.80452
2.2433
2.2433
-10.3946
-10.3946
-8.70587
-8.70587
-6.14644
-6.14644
1.74741
1.74741
0.165531
0.165531
3.86292
3.86292
-8.72916
-8.72916
128.691
128.691
-9.09243
-9.09243
-7.28363
-7.28363
-8.26949
-8.26949
-8.34196
-8.34196
-0.534661
-0.534661
-9.53037
-9.53037
-8.25638
-8.25638
-8.59769
-8.59769
-1.11727
-1.11727
-9.13957
-9.13957
-8.87325
-8.87325
17.6163
17.6163
0.928137
0.928137
-8.87818
-8.87818
-5.65052
-5.65052
-8.17377
-8.17377
3.13188
3.13188
-8.4596
-8.4596
1.26789
1.26789
-6.26142
-6.26142
-9.77347
-9.77347
1.95304
1.95304
1.51117
1.51117
3.37422
3.37422
-5.86417
-5.86417
-7.08758
-7.08758
-8.95417
-8.95417
-5.61429
-5.61429
-14.0364
-14.0364
-10.4887
-10.4887
0.507715
0.507715
-0.411539
-0.411539
-1.24733
-1.24733
-6.57582
-6.57582
6.20961
6.20961
-6.45789
-6.45789
-8.83094
-8.83094
-6.99129
-6.99129
-8.35757
-8.35757
-9.72295
-9.72295
3.48595
3.48595
2.67563
2.67563
-7.86129
-7.86129
-8.00044
-8.00044
-9.56331
-9.56331
-9.12132
-9.12132
-2.46446
-2.46446
-8.79118
-8.79118
-9.09813
-9.09813
417.423
417.423
-7.64124
-7.64124
3.30341
3.30341
-4.92845
-4.92845
-9.35058
-9.35058
-6.2929
-6.2929
-8.3673
-8.3673
1.02032
1.02032
-8.28517
-8.28517
2.57547
2.57547
-6.13915
-6.13915
-0.985862
-0.985862
-2.34655
-2.34655
-6.81434
-6.81434
1.82697
1.82697
-8.4346
-8.4346
111.353
111.353
3.6208
3.6208
-8.27081
-8.27081
-8.00895
-8.00895
-8.47463
-8.47463
-7.52748
-7.52748
-0.016932
-0.016932
0.61544
0.61544
3.37706
3.37706
-8.38753
-8.38753
498.41
498.41
-6.12617
-6.12617
-7.78484
-7.78484
-8.57051
-8.57051
1.36376
1.36376
-8.46931
-8.46931