/*--------------------------------*- C++ -*----------------------------------*\
  =========                 |
  \\      /  F ield         | OpenFOAM: The Open Source CFD Toolbox
   \\    /   O peration     | Website:  https://openfoam.org
    \\  /    A nd           | Version:  8
     \\/     M anipulation  |
\*---------------------------------------------------------------------------*/
FoamFile
{
    version     2.0;
    format      ascii;
    class       volScalarField;
    location    "0.45";
    object      p_rgh;
}
// * * * * * * * * * * * * * * * * * * * * * * * * * * * * * * * * * * * * * //

dimensions      [1 -1 -2 0 0 0 0];

internalField   nonuniform List<scalar> 
1924
(
54.2453
-2.31875
-3.76897
-2.28861
-3.27708
-3.30782
-3.98922
-4.03156
-3.96783
-3.7946
-4.00715
-4.00484
1252.5
-4.06365
-1.77154
-0.353991
1346.39
-4.04701
294.238
-4.12347
1201.73
1431.21
533.533
-4.1086
1452.07
14.2137
12.5074
-3.55847
-4.01083
-3.78841
1295.96
1227.23
690.616
1106.78
-3.63131
123.221
492.401
-3.89559
-3.63454
1294.7
39.2526
1161.45
20.8784
258.59
-4.03471
-4.15012
-0.084641
-3.73877
1028.42
1078.54
4.20183
1283.25
1621.06
3.98588
655.274
-3.70743
50.1354
-3.60423
-3.6147
-4.41366
10.4557
0.885579
5.85615
-3.26821
4.15189
-3.72497
-5.95146
769.851
-3.99485
4.41672
658.181
-2.1642
-3.58989
-3.74536
-3.73574
144.878
-3.73757
-3.7174
-3.74145
4.50529
-3.82073
1.53873
-3.7089
1257.66
586.566
155.429
-3.64853
-5.08342
1014.17
1208.23
-5.83082
2.56151
174.216
-5.88541
1330.87
4.1681
-3.74048
-3.84593
-4.75972
95.3044
-2.40073
1327.82
-4.79099
2.44795
114.639
-3.71406
-3.87263
318.172
-4.28386
-4.02157
-3.75251
-3.94272
-3.84394
-3.91456
-3.74123
1193.23
-1.00843
-5.57493
3.44198
-3.743
1104.8
1065.86
1102.41
1198.98
-6.3182
-5.95923
67.3459
-3.70724
-3.83362
1089.18
-3.75696
-1.44352
216.056
-3.76449
1363.69
-4.42784
-3.91211
-3.9216
-4.19584
-3.76035
-3.69417
-4.90328
20.7016
1226.48
-0.902839
1108.91
310.052
218.717
9.27778
3.23263
-0.542779
1072.55
161.601
-0.466021
-3.72002
22.5212
1197.83
-3.87481
-3.80269
51.9991
-3.85366
643.854
-0.605403
1032.77
13.1708
-4.4774
-4.45362
1248.2
-3.74417
-3.90583
121.884
-4.22204
-3.70395
-4.56578
-3.73901
74.7121
-3.86273
307.685
7.47073
-4.33836
159.686
-5.4362
-3.76268
-4.48323
968.148
-2.70724
240.809
-1.90065
-3.75679
-3.84272
239.469
-4.18575
-3.79552
-4.31078
-4.10284
1021.95
-4.54977
191.525
124.368
1404.65
1219.62
-2.8491
-2.98993
-4.00763
-3.242
104.473
-4.16775
1318.37
681.44
85.6331
952.248
-3.93138
-4.40862
-3.78822
17.0291
-3.71933
-4.51886
84.2189
-4.13682
-3.69367
73.6988
-3.5537
-3.9237
-4.56117
-3.9705
-4.98701
-3.83213
-3.72981
-2.62204
1134.63
252.458
-5.01964
153.658
141.798
-4.38429
46.1596
-4.37177
-4.40078
-1.11074
943.399
-5.33527
100.827
-4.24106
929.274
133.497
1406.43
-4.22365
-3.74661
-3.7544
-3.71271
-3.42227
967.678
-1.26428
-0.449332
-3.75396
-4.66648
19.1366
99.0504
40.916
-4.3733
13.8748
-1.35458
182.538
-3.74216
1256.54
-3.70272
1068.76
-3.69165
661.923
13.9431
1785.49
0.280614
443.636
115.067
-4.9051
-3.83054
-4.20542
-4.85897
-0.481895
133.425
1172.32
1028.95
-5.42103
-4.53145
800.449
-3.79891
-3.82562
994.373
-4.464
107.269
-3.43873
-3.61892
-5.15317
-4.45366
1068.79
306.627
-4.82924
1527.13
-3.6848
-4.60054
1037.86
-0.523698
-4.21812
-0.835731
-4.27657
105.384
807.35
-4.1236
120.679
-3.97013
1472.19
3.34421
-4.25649
31.3336
-3.77265
982.076
148.211
-4.45058
-4.70863
18.1993
-3.66729
1816.69
-4.17625
131.687
108.263
-3.76641
195.268
98.4212
-3.82197
-3.8721
232.371
-5.55514
5.91045
-4.23186
-3.6826
10.0821
-4.66005
-4.71972
-4.46947
-4.48098
-3.74243
1.98249
428.848
1615.61
-4.96024
-6.02228
1069.27
-5.97986
3.36002
104.139
600.703
-1.72053
50.2806
-4.38483
1452.02
-3.71504
1112.78
-4.5956
1610.68
4.1359
2.91775
-4.68673
-4.26887
-5.16728
1283.78
-4.4749
18.7152
1786.09
-4.78968
-4.77805
-4.10365
-2.36829
93.489
-5.31256
121.626
413.95
-4.85118
-5.11961
1042.59
-5.91669
-5.93561
-3.6943
200.931
-1.41606
1756.59
-4.0296
-3.67422
-5.04745
186.881
-4.59341
1.93068
3.52867
97.3223
-5.27333
-4.77124
72.5091
456.714
196.729
-3.87392
-5.60546
1093.07
-3.68657
1607.1
511.688
1235.09
-4.53466
-3.92837
-5.3996
955.564
1156.56
-4.19079
2.90214
-4.60253
-4.57678
-5.0769
-4.43993
-3.8167
-4.56252
17.0849
-3.84221
-4.4235
1825.39
-3.88413
1483.26
1272.23
-4.22253
-3.76903
-3.7538
5.95767
290.985
-4.70735
-3.78882
55.106
2.99721
-4.85203
282.832
-4.13628
378.454
-4.65
823.13
1173.54
116.605
-3.98189
1080.25
-5.56478
641.729
-5.17967
-3.66873
118.117
-4.84476
-5.25522
3.41829
-2.94139
-3.92828
58.6082
58.5191
-4.01699
-4.92479
2.9798
-5.68359
-3.74647
14.459
409.703
3.07634
1651.99
-4.85283
-5.0465
-5.13251
-4.67534
-3.88976
1286.68
2.74424
-3.73122
-3.96283
1384.24
-3.72453
-4.01584
-3.96933
-5.45035
5.56334
-4.94618
-4.92625
30.0343
-5.15282
4.91448
1281.41
289.734
-5.2755
-4.71277
-3.79409
444.259
183.72
2.72811
-3.8985
-4.33997
-3.88278
-5.51034
11.4214
154.567
103.482
-4.23875
-5.12586
1679.1
314.922
1459.54
-4.17537
-4.57771
-3.11345
2.66147
-4.10545
-3.70742
-3.8466
-4.26424
-3.68762
-4.52624
-4.71817
16.1897
106.041
-4.791
23.4558
2.88946
-4.73809
-3.79105
-4.04218
-4.91707
95.5444
-3.72142
4.55176
391.677
-5.61212
3.04612
-2.14263
2.6003
9.81817
1611.46
-4.70868
-5.03623
1496.18
729.565
1290.56
2.86039
35.6524
4.26596
-3.68785
-3.95327
66.0735
-3.74731
-3.3565
-5.3094
-3.93448
4.43067
60.2638
-3.52697
2.63878
-4.69685
14.9122
5.67007
4.1359
898.346
-3.88455
934.955
2.92432
134.643
63.2869
1709.17
272.354
-3.76641
-3.86327
-3.75606
2.61034
-3.91057
-5.04466
-5.16095
47.4213
-3.70686
4.21052
4.90667
1516.1
-4.18444
4.07876
5.20714
16.0713
-4.85058
29.1488
4.09896
4.26827
-4.32989
3.4504
-3.84828
-0.19076
720.929
2.66266
17.9922
4.12085
4.12777
-4.11371
-2.81573
-3.74428
-4.88552
3.09224
4.10398
-4.44372
-5.67321
-5.57514
2.33363
0.95945
5.74793
-3.73616
1067.35
3.4266
1320.18
-5.15353
6.69895
-3.79078
2.77964
-5.25728
-4.9098
1658.23
4.08426
-2.23687
-4.02032
-3.81829
-3.90476
134.73
-5.34794
-3.71504
4.39508
-4.47935
-4.61652
6.38622
29.9176
-5.36453
-3.74172
3.21213
2.33543
4.0974
-5.2266
1145.63
-5.58955
-3.97351
39.5272
66.2321
1.90669
-6.15857
-4.29894
-4.71436
7.94344
-4.94443
-5.29859
1659.51
2.77435
67.4662
-3.83462
-5.18601
4.54745
70.3023
2.92297
-3.71517
-6.28445
3.69837
7.29246
4.17198
-3.69987
-3.90477
69.4856
-4.34286
1236.73
30.5942
2.54481
1.95928
1.48537
-3.77496
60.0725
-3.82361
-4.87667
-3.87214
-5.03522
7.18187
4.09477
4.33576
-4.16924
-4.24473
-4.90467
5.00252
329.189
-5.41078
29.772
1116.44
-4.0765
4.15539
0.553678
-5.93948
-3.87625
-4.97739
2.80272
-4.40214
4.01529
-3.72022
1.63846
1.48173
-3.8225
3.2275
-4.93275
1460.22
4.0512
-4.70568
0.904875
-5.04309
-4.0264
2.21173
2.58885
4.04741
40.8725
1126.7
-1.93805
-4.63779
70.1711
2.95517
-4.52255
402.767
-3.70526
25.81
-3.75337
4.16979
28.2131
814.367
133.675
4.03857
1528.07
-3.95777
70.8821
3.46027
1068.36
1.37629
15.5308
661.527
32.7932
-4.76321
-4.38575
3.10106
4.03101
17.0704
-3.79874
4.14991
-3.92315
1153.86
1.70248
4.02903
2.26361
-3.92271
5.46962
-4.08766
-2.0674
998.838
583.644
-5.24115
-3.81908
4.02218
1134.29
15.6607
-3.78078
-4.9262
-4.83012
-3.86875
2.45737
3.71874
-3.05974
1.11368
4.04347
-4.76394
31.1576
-4.83254
1128.63
5.59186
1514.21
-4.1135
1.7948
-2.9654
3.98145
-3.96275
3.2911
-3.73744
0.521234
298.633
-4.30888
-3.76487
-3.82623
-4.91949
-4.27902
54.3623
3.60017
2.77131
-4.20301
7.67172
0.326269
-3.84352
-4.06299
3.88551
-4.76177
2.61165
26.8857
1567.33
284.7
-3.75487
-3.76684
-4.79479
416.947
31.9162
46.5986
1.25486
-3.74326
-3.99952
926.937
4.10658
2.39713
3.84468
29.5405
4.00437
10.4767
3.84749
3.08366
-5.36777
-4.44156
3.96809
17.6565
-3.96351
0.541128
31.098
9.70142
3.72675
12.8181
-3.80524
2.08988
-4.88543
-0.793615
10.35
-3.72243
31.6113
-3.91187
1152.47
-3.91639
4.08413
-4.85436
-1.34521
1229.72
2.81104
-4.83837
-0.231287
26.4829
2.6518
0.540471
-4.66576
3.88933
-3.74973
32.1521
-3.72607
2.96257
1.62815
3.97815
-3.75194
31.5995
-4.56111
-3.66756
-3.80018
3.27964
-3.84164
3.9514
6.93608
3.80813
3.5894
-3.88558
2.44568
3.41022
-3.52835
1.03527
-3.79175
-3.78641
3.44448
1048.7
-4.55065
-4.10485
2.16026
20.9282
-3.76967
-4.16582
-1.90052
-4.02688
-3.97735
-4.59178
10.6494
0.319825
-3.84146
602.866
-4.53549
-4.12597
-4.07835
-4.02394
32.6765
3.17777
-5.13477
3.67064
-3.72799
1.74026
3.96712
19.6217
-1.32651
-4.21225
3.89709
-4.85373
-4.28291
2.15729
-3.84999
-3.9896
4.17644
3.94298
-4.60355
3.84632
-3.85233
1.19507
-3.75129
-3.75189
-4.24323
-0.462422
1137.81
-3.94382
3.57358
-3.82161
-5.36588
0.850398
-4.82217
0.544362
10.4469
-0.549941
2.64545
-3.54666
1425.96
14.58
2.45922
-4.62635
-4.52409
-3.7684
4.23466
-3.91761
3.7998
4.03186
-3.88966
-0.158983
-3.59728
3.73767
22.6568
2.95441
-1.97395
984.428
2.23805
28.2309
1134.14
3.32572
176.764
3.66516
1.24152
1135.02
-3.88118
1.95087
-4.5944
3.8894
-3.88079
-4.43036
-1.3782
24.3607
3.85585
-3.79724
1.5509
-3.74662
23.0845
-4.88603
-3.74406
-3.92363
-1.53663
-4.76706
149.931
12.6689
-4.64667
3.1618
1.02623
-3.36487
-4.45688
-0.951204
1087.89
972.703
2.51234
545.754
-4.04773
-3.85915
0.408592
2.29872
-3.75909
2.6958
22.1493
-3.65051
3.53493
-3.36445
3.77613
2.84831
-0.774311
2.0283
1471.88
-4.93393
-3.97882
-4.02654
1101.78
-0.256692
3.72302
-5.48612
-3.74894
-3.99603
-3.96208
-3.65705
-4.39965
1.6621
-2.04414
-4.1126
-4.34912
-4.07124
742.481
-3.78583
-3.82812
-3.5855
1.17956
-4.32855
-3.84389
-3.13772
1146.42
3.06912
-3.93845
-4.79218
3.88255
3.85403
0.605772
-4.03479
1115.34
-1.63798
3.30522
-3.8811
-4.84122
-4.45568
-5.53572
-3.61177
-3.90172
10.29
22.4521
-3.66812
-0.0211517
-4.18694
3.60921
-0.916615
-3.76914
-4.32971
-3.42941
-4.24613
-4.26401
2.34608
-4.31229
3.23075
2.10912
183.151
3.54337
-3.81461
-4.70398
-2.16343
-3.88461
3.79075
-5.19035
3.75149
-0.647066
1.82459
-4.21517
-3.83901
3.95433
-4.98819
1.46334
-1.91819
-3.81096
-3.58743
1.00501
395.496
3.40863
2.55908
-3.86946
-3.78046
-5.2671
-3.77408
0.46723
-4.65796
-3.80742
-3.83545
-1.48629
-3.58205
-4.8088
-3.76129
-3.94655
3.66191
2.18187
-0.116522
2.86113
-3.75591
-3.71286
4.15778
3.06508
-1.57708
1.94347
-3.48371
3.61037
-4.64092
4.12743
4.11701
-4.49341
3.43661
-1.20782
-4.00657
1.91069
-2.84135
-4.14576
3.34734
-5.11567
-3.98297
-3.96005
148.922
-3.58653
1.57298
-3.79604
-3.86172
-5.07068
-4.37462
-4.75095
1.14732
2.4119
-2.55191
-3.94096
-3.92015
3.76351
0.642051
-5.09763
4.09945
3.7957
3.21968
-0.684871
-3.78829
-1.80822
0.0846475
-3.86095
1040.44
-3.67488
-3.90334
-4.85996
-5.04077
-4.41832
-4.04221
3.50152
-4.17675
1124.78
-3.60803
-3.9087
4.05468
-3.79236
-1.56541
993.248
3.69306
-3.55206
-3.86714
-0.470707
-4.07332
2.61991
2.98345
3.65248
-4.74006
-5.08233
-3.50728
1090.28
-3.81837
-4.64988
-4.38128
3.15153
-4.91554
2.76998
-3.52852
2.02387
3.86498
-1.18213
-3.50386
-3.08389
-3.80623
1.73379
-3.40788
1076.53
-4.46749
-4.95739
1153.46
-2.86763
1.38881
3.33213
-4.1871
-4.48504
-3.53586
2.27695
-3.82336
0.972739
-2.15261
1151.24
-3.84112
-4.89877
0.491002
-4.16267
3.56352
-4.94482
192.786
1143.33
-4.82988
-0.969339
-3.9378
1058.13
1070.84
-3.8079
-1.94374
-0.0326684
1130.65
-4.53806
3.5146
3.27736
4.14675
-3.82786
-3.92495
-1.53043
-3.64586
-3.95032
-4.89464
-4.81798
-4.81013
2.50969
-3.91598
2.11038
-4.1264
-4.89674
-3.60775
3.67565
3.7084
-4.60685
-0.550334
-3.42418
1.83192
1146.98
-3.46665
1.50469
-4.82149
1.11241
-4.28377
147.233
-3.91493
1109.34
1148.36
-3.42141
-4.53189
0.654504
3.98364
1118.8
-1.34424
3.41304
2.99811
0.14866
2.35537
-3.9661
-2.93548
-3.9036
3.60451
3.15561
-3.89916
-2.40024
-4.64826
-2.78178
2.80443
3.56555
4.06938
-4.07303
-4.70146
3.77524
-4.57817
-3.86205
-3.06584
-4.64824
-3.45991
-2.23251
-4.64039
-0.364527
-4.33209
1145.3
-3.68227
3.36941
-4.71994
-4.65464
-3.27307
-1.0104
-3.8165
-3.13185
-1.78269
1147.61
-4.22627
-4.42382
-3.89504
-4.11685
-3.79998
2.58276
-4.63396
-3.736
-3.76644
4.10596
-1.63985
-3.89181
-3.76811
3.27551
-4.59845
-3.499
4.19447
-4.6748
-4.22051
-4.46329
-0.834685
-3.29157
-3.85227
-4.64359
-3.89825
3.0944
-3.80469
-4.25632
2.92651
-3.28537
-3.32601
3.43364
-3.89185
3.48054
-4.33518
-3.81224
-3.78262
1136.17
2.72596
-4.46444
3.8974
-3.31847
-4.27062
1147.48
-3.88229
-1.3647
-4.6175
-3.99245
4.24584
-3.78742
-4.38464
-4.49211
-3.78836
995.532
992.078
3.59695
1140.24
-4.43956
3.6278
-2.48168
-4.43011
-2.62402
-4.01891
-4.44837
-3.34307
626.081
-3.08244
-4.11408
-3.87584
-4.36413
-4.49648
1143.66
-3.80033
-2.73721
3.22625
-2.35592
2.2602
3.3629
1.99792
-3.61116
3.68984
1134.14
1112.51
1.70447
-4.05025
1166.36
-4.06992
-2.00755
1067.58
1.36781
-4.19279
0.975265
-3.88616
985.916
0.526292
-1.216
388.714
-4.25147
-4.41628
1109.26
-3.8171
0.0365828
-2.91949
3.52961
-3.6718
-2.84425
-4.57192
-1.88272
-4.50542
-3.43046
32.0028
-3.15629
2.50359
-4.5725
1101.52
-3.79381
-3.85349
-3.09142
3.49338
715.465
3.8078
1151.92
-0.456665
-4.00923
-3.90431
-3.18091
-1.61671
-3.85861
3.3247
-3.99244
-3.47711
-3.85723
-3.85319
-4.31595
3.42372
-4.53508
-3.88774
-4.04497
-4.38056
-4.33403
-3.25902
2.72284
-2.8232
-2.45261
2.9167
-3.60384
-4.06299
-3.92817
-4.56651
-3.84631
-4.24781
-0.905729
-4.51636
-2.64893
-2.35646
3.08146
-2.95552
-1.50526
-4.55875
-3.29928
920.912
-2.74748
-3.88599
-2.55516
-4.124
-2.9913
-4.40889
1133.58
-4.22884
1137.22
-4.14065
3.3955
-3.65885
1166.6
-4.13047
-4.15488
-3.80228
-2.16047
1165.09
-2.70391
-3.7861
1145.07
3.61331
3.72091
8.29046
-3.08183
-3.84731
-3.91175
1126.33
-3.80839
-3.80442
3.21312
-3.41186
3.55866
-2.88966
-2.6101
-3.84403
-2.77066
-2.0563
3.5311
-3.86355
-1.26961
-3.12189
-2.53861
-3.82595
-2.4045
1128.85
2.34862
-4.22823
1095.23
2.09483
-3.2269
1.8127
-2.93562
-4.14648
1.49164
-3.46386
-3.95407
1.11821
-2.68212
-3.77788
3.31247
0.688114
0.211486
-2.33416
11.4143
-2.74019
-4.16987
-1.81335
-2.58054
-4.26668
1123.27
999.497
846.252
-0.281328
-2.214
-3.59581
-3.04229
-4.46891
-2.52415
1155.85
-4.54334
-2.39293
-2.85509
-4.50446
3.38424
3.46873
1120.06
-0.7452
-4.37684
-3.27625
3.64122
-3.78424
-2.51247
-2.66831
-3.75686
-2.33489
2.58686
2.79555
-3.64959
-3.09101
2.97802
-4.07288
-1.53748
-2.56319
-1.72662
1171.48
-4.58336
-4.18499
-3.76188
3.43547
-3.8293
-4.056
-2.7223
-2.90581
-3.93943
-3.73173
-2.21939
-3.98065
-2.39205
3.1305
-3.87635
-3.7241
-2.13598
3.44532
-3.79512
-1.13674
-3.9903
1134.33
1078.64
1115.02
-3.7509
-2.34033
-2.50469
-2.84027
-4.0075
-3.02528
1165.66
3.54943
-3.87214
-2.55329
-3.91445
-3.99381
-2.23006
-3.79341
-2.66208
-4.25172
-2.16335
-3.95686
-3.86883
-3.86329
3.25022
-3.40241
-3.75197
-2.39405
-3.85232
-1.95775
-4.01859
-3.21302
-4.07589
1136.48
-3.88487
-1.43651
3.33894
-2.34575
-4.43283
3.57286
-3.81531
-2.71196
-2.89129
-4.23249
-2.24417
-3.82402
-3.57436
-3.93164
-3.85445
-4.55743
-3.69592
-2.18178
-4.47185
-3.93374
-2.50166
1101.22
-2.3513
-4.11722
-2.39699
-3.80183
-2.04073
-3.80371
3.43021
3.39865
-3.82738
1132.83
-3.45629
-3.74244
-3.70357
-3.74286
-2.54615
-3.07691
-4.3267
-3.69837
-3.86678
-2.20003
-3.7424
-2.25731
-3.6764
1144.41
1155.91
-2.35697
-3.79933
-3.6698
3.50355
1665.27
-2.8188
-3.63682
-3.76892
-3.93925
-2.64341
-3.74857
-1.73249
-1.65753
-2.39658
-2.2684
-2.21639
-2.08174
-3.76617
-3.71158
-1.88953
-3.63871
-3.00347
-2.48417
-2.2419
3.47998
-2.22983
-3.69624
-2.10681
1128.03
1118.23
-3.88953
-2.27341
-3.65033
-4.11593
-4.1993
-3.78613
-3.68868
-3.26565
-3.64641
-2.04392
-3.61783
-3.68929
-2.34396
-3.65385
-2.12905
-3.84133
-1.98926
-2.70011
-3.62207
-2.87901
-3.38292
-3.44629
-3.643
-3.81267
-3.70672
-3.58518
-2.14903
-3.9776
-2.53498
-2.23312
-2.1655
-1.96884
-2.02827
-2.00255
-3.82352
3.51884
-3.73
-2.38722
-2.18044
-3.64763
-3.57795
-3.59734
-3.94161
-3.98566
-3.87039
-3.19262
-3.54559
-3.06551
-2.26586
-3.57776
-3.6586
-3.60564
-2.07678
-3.55141
-2.1761
-2.15693
-2.15771
-3.60609
-3.56895
-2.10224
-3.85657
-3.60507
-2.12433
-3.52124
-3.52393
-2.14271
-3.84682
-3.59001
-3.57856
-3.55919
-3.5463
-3.57667
1129.63
1135.27
-3.54078
1136.12
-3.5425
1142.58
-2.07896
-2.0935
-3.25551
-2.06611
-2.04773
-1.93115
-2.11481
-2.10292
-1.81951
-1.8739
-3.69549
-3.67238
-4.066
-3.61793
-3.63506
-3.74368
-3.77351
-3.55388
-2.13878
-2.13231
-2.13853
-2.13144
-2.12075
-2.13023
-3.83335
-3.54899
-3.76556
-3.61911
-3.75649
-3.67796
3.50068
3.48117
1134.41
773.602
1141.79
3.4632
3.46365
5.03523
4.10456
3.44467
3.46904
1267.61
-3.74868
1136.01
1141.76
3.45726
1117.36
3.55309
1096.63
1131.21
612.567
1032.44
13.3037
1723.31
1135.69
4.18488
4.19216
957.593
1023.44
499.36
1030.42
884.416
1024.57
1110.61
1131.21
1125.47
1052.11
1082.15
1071.87
1089.53
1723.58
4.15975
902.319
10.0594
10.462
1129.4
1136.43
894.005
186.758
-3.74623
403.227
1343.28
1377.98
1044.51
992.27
1025.52
870.21
944.328
1022.6
1023.02
1431.06
1411.69
1113.77
1752.2
1045.29
-3.74149
945.943
1072.49
12.3653
1032.38
532.954
1032.55
1738.09
906.23
843.248
5.10111
1086.73
995.445
564.932
351.308
845.337
-3.93794
111.87
1767.55
4.17748
567.381
-4.06772
784.664
277.908
1041.66
4.1589
1651.64
-4.16343
883.916
762.21
1424.24
1561.71
-3.90074
983.788
-3.9877
595.808
987.602
37.0578
-4.00498
755.287
4.84337
605.896
990.206
935.086
662.099
8.93387
1349.83
1286.07
-4.084
)
;

boundaryField
{
    patch0
    {
        type            fixedFluxPressure;
        gradient        uniform 0;
        value           nonuniform List<scalar> 
4010
(
54.2453
54.2453
-2.31875
-2.31875
-3.76897
-3.76897
-2.28861
-2.28861
-3.27708
-3.27708
-3.30782
-3.30782
-3.98922
-3.98922
-4.03156
-4.03156
-3.96783
-3.96783
-3.7946
-3.7946
-4.00715
-4.00715
-4.00484
-4.00484
1252.5
1252.5
-4.06365
-4.06365
-1.77154
-1.77154
-0.353991
-0.353991
1346.39
1346.39
-4.04701
-4.04701
294.238
294.238
-4.12347
-4.12347
1201.73
1201.73
1431.21
1431.21
533.533
533.533
-4.1086
-4.1086
1452.07
1452.07
14.2137
14.2137
12.5074
12.5074
-3.55847
-3.55847
-4.01083
-4.01083
-3.78841
-3.78841
1295.96
1295.96
1227.23
1227.23
690.616
690.616
1106.78
1106.78
-3.63131
-3.63131
123.221
123.221
492.401
492.401
-3.89559
-3.89559
-3.63454
-3.63454
1294.7
1294.7
39.2526
39.2526
1161.45
1161.45
20.8784
20.8784
258.59
258.59
-4.03471
-4.03471
-4.15012
-4.15012
-0.084641
-0.084641
-3.73877
-3.73877
1028.42
1028.42
1078.54
1078.54
4.20183
4.20183
1283.25
1283.25
1621.06
1621.06
3.98588
3.98588
655.274
655.274
-3.70743
-3.70743
50.1354
50.1354
-3.60423
-3.60423
-3.6147
-3.6147
-4.41366
-4.41366
10.4557
10.4557
0.885579
0.885579
5.85615
5.85615
-3.26821
-3.26821
4.15189
4.15189
-3.72497
-3.72497
-5.95146
-5.95146
769.851
769.851
-3.99485
-3.99485
4.41672
4.41672
658.181
658.181
-2.1642
-2.1642
-3.58989
-3.58989
-3.74536
-3.74536
-3.73574
-3.73574
144.878
144.878
-3.73757
-3.73757
-3.7174
-3.7174
-3.74145
-3.74145
4.50529
4.50529
-3.82073
-3.82073
1.53873
1.53873
-3.7089
-3.7089
1257.66
1257.66
586.566
586.566
155.429
155.429
-3.64853
-3.64853
-5.08342
-5.08342
1014.17
1014.17
1208.23
1208.23
-5.83082
-5.83082
2.56151
2.56151
174.216
174.216
-5.88541
-5.88541
1330.87
1330.87
4.1681
4.1681
-3.74048
-3.74048
-3.84593
-3.84593
-4.75972
-4.75972
95.3044
95.3044
-2.40073
-2.40073
1327.82
1327.82
-4.79099
-4.79099
2.44795
2.44795
114.639
114.639
-3.71406
-3.71406
-3.87263
-3.87263
318.172
318.172
-4.28386
-4.28386
-4.02157
-4.02157
-3.75251
-3.75251
-3.94272
-3.94272
-3.84394
-3.84394
-3.91456
-3.91456
-3.74123
-3.74123
1193.23
1193.23
-1.00843
-1.00843
-5.57493
-5.57493
3.44198
3.44198
-3.743
-3.743
1104.8
1104.8
1065.86
1065.86
1102.41
1102.41
1198.98
1198.98
-6.3182
-6.3182
-5.95923
-5.95923
67.3459
67.3459
-3.70724
-3.70724
-3.83362
-3.83362
1089.18
1089.18
-3.75696
-3.75696
-1.44352
-1.44352
216.056
216.056
-3.76449
-3.76449
1363.69
1363.69
-4.42784
-4.42784
-3.91211
-3.91211
-3.9216
-3.9216
-4.19584
-4.19584
-3.76035
-3.76035
-3.69417
-3.69417
-4.90328
-4.90328
20.7016
20.7016
20.7016
1226.48
1226.48
1226.48
-0.902839
-0.902839
1108.91
1108.91
310.052
310.052
218.717
218.717
9.27778
9.27778
3.23263
3.23263
-0.542779
-0.542779
1072.55
1072.55
1072.55
161.601
161.601
-0.466021
-0.466021
-3.72002
-3.72002
22.5212
22.5212
1197.83
1197.83
-3.87481
-3.87481
-3.80269
-3.80269
51.9991
51.9991
-3.85366
-3.85366
643.854
643.854
-0.605403
-0.605403
1032.77
1032.77
13.1708
13.1708
-4.4774
-4.4774
-4.45362
-4.45362
1248.2
1248.2
-3.74417
-3.74417
-3.90583
-3.90583
121.884
121.884
-4.22204
-4.22204
-3.70395
-3.70395
-4.56578
-4.56578
-3.73901
-3.73901
74.7121
74.7121
-3.86273
-3.86273
307.685
307.685
7.47073
7.47073
-4.33836
-4.33836
159.686
159.686
-5.4362
-5.4362
-3.76268
-3.76268
-4.48323
-4.48323
968.148
968.148
-2.70724
-2.70724
240.809
240.809
-1.90065
-1.90065
-3.75679
-3.75679
-3.84272
-3.84272
239.469
239.469
-4.18575
-4.18575
-3.79552
-3.79552
-4.31078
-4.31078
-4.10284
-4.10284
1021.95
1021.95
1021.95
-4.54977
-4.54977
191.525
191.525
124.368
124.368
1404.65
1404.65
1219.62
1219.62
-2.8491
-2.8491
-2.98993
-2.98993
-4.00763
-4.00763
-3.242
-3.242
104.473
104.473
-4.16775
-4.16775
1318.37
1318.37
681.44
681.44
85.6331
85.6331
85.6331
952.248
952.248
-3.93138
-3.93138
-4.40862
-4.40862
-3.78822
-3.78822
17.0291
17.0291
-3.71933
-3.71933
-4.51886
-4.51886
84.2189
84.2189
-4.13682
-4.13682
-3.69367
-3.69367
73.6988
73.6988
-3.5537
-3.5537
-3.9237
-3.9237
-4.56117
-4.56117
-3.9705
-3.9705
-4.98701
-4.98701
-3.83213
-3.83213
-3.72981
-3.72981
-2.62204
-2.62204
1134.63
1134.63
252.458
252.458
-5.01964
-5.01964
153.658
153.658
141.798
141.798
-4.38429
-4.38429
46.1596
46.1596
46.1596
-4.37177
-4.37177
-4.40078
-4.40078
-1.11074
-1.11074
943.399
943.399
943.399
-5.33527
-5.33527
100.827
100.827
-4.24106
-4.24106
929.274
929.274
133.497
133.497
1406.43
1406.43
-4.22365
-4.22365
-3.74661
-3.74661
-3.7544
-3.7544
-3.71271
-3.71271
-3.42227
-3.42227
967.678
967.678
-1.26428
-1.26428
-0.449332
-0.449332
-3.75396
-3.75396
-4.66648
-4.66648
19.1366
19.1366
99.0504
99.0504
40.916
40.916
-4.3733
-4.3733
13.8748
13.8748
-1.35458
-1.35458
182.538
182.538
-3.74216
-3.74216
1256.54
1256.54
-3.70272
-3.70272
1068.76
1068.76
-3.69165
-3.69165
661.923
661.923
13.9431
13.9431
1785.49
1785.49
0.280614
0.280614
443.636
443.636
115.067
115.067
-4.9051
-4.9051
-3.83054
-3.83054
-4.20542
-4.20542
-4.85897
-4.85897
-0.481895
-0.481895
133.425
133.425
1172.32
1172.32
1028.95
1028.95
1028.95
-5.42103
-5.42103
-4.53145
-4.53145
800.449
800.449
-3.79891
-3.79891
-3.82562
-3.82562
994.373
994.373
-4.464
-4.464
107.269
107.269
-3.43873
-3.43873
-3.61892
-3.61892
-5.15317
-5.15317
-4.45366
-4.45366
1068.79
1068.79
306.627
306.627
-4.82924
-4.82924
1527.13
1527.13
-3.6848
-3.6848
-4.60054
-4.60054
1037.86
1037.86
1037.86
-0.523698
-0.523698
-4.21812
-4.21812
-0.835731
-0.835731
-4.27657
-4.27657
105.384
105.384
807.35
807.35
-4.1236
-4.1236
120.679
120.679
-3.97013
-3.97013
1472.19
1472.19
3.34421
3.34421
-4.25649
-4.25649
31.3336
31.3336
-3.77265
-3.77265
982.076
982.076
148.211
148.211
-4.45058
-4.45058
-4.70863
-4.70863
18.1993
18.1993
-3.66729
-3.66729
1816.69
1816.69
-4.17625
-4.17625
131.687
131.687
108.263
108.263
-3.76641
-3.76641
195.268
195.268
98.4212
98.4212
-3.82197
-3.82197
-3.8721
-3.8721
232.371
232.371
-5.55514
-5.55514
5.91045
5.91045
-4.23186
-4.23186
-3.6826
-3.6826
10.0821
10.0821
-4.66005
-4.66005
-4.71972
-4.71972
-4.46947
-4.46947
-4.48098
-4.48098
-3.74243
-3.74243
1.98249
1.98249
428.848
428.848
1615.61
1615.61
-4.96024
-4.96024
-6.02228
-6.02228
1069.27
1069.27
-5.97986
-5.97986
3.36002
3.36002
104.139
104.139
600.703
600.703
-1.72053
-1.72053
50.2806
50.2806
-4.38483
-4.38483
1452.02
1452.02
-3.71504
-3.71504
1112.78
1112.78
-4.5956
-4.5956
1610.68
1610.68
4.1359
4.1359
2.91775
2.91775
-4.68673
-4.68673
-4.26887
-4.26887
-5.16728
-5.16728
1283.78
1283.78
-4.4749
-4.4749
18.7152
18.7152
1786.09
1786.09
-4.78968
-4.78968
-4.77805
-4.77805
-4.10365
-4.10365
-2.36829
-2.36829
93.489
93.489
-5.31256
-5.31256
121.626
121.626
413.95
413.95
-4.85118
-4.85118
-5.11961
-5.11961
1042.59
1042.59
-5.91669
-5.91669
-5.93561
-5.93561
-3.6943
-3.6943
200.931
200.931
-1.41606
-1.41606
1756.59
1756.59
-4.0296
-4.0296
-3.67422
-3.67422
-5.04745
-5.04745
186.881
186.881
-4.59341
-4.59341
1.93068
1.93068
3.52867
3.52867
97.3223
97.3223
-5.27333
-5.27333
-4.77124
-4.77124
72.5091
72.5091
72.5091
456.714
456.714
196.729
196.729
-3.87392
-3.87392
-5.60546
-5.60546
1093.07
1093.07
-3.68657
-3.68657
1607.1
1607.1
511.688
511.688
1235.09
1235.09
1235.09
-4.53466
-4.53466
-3.92837
-3.92837
-5.3996
-5.3996
955.564
955.564
1156.56
1156.56
-4.19079
-4.19079
2.90214
2.90214
-4.60253
-4.60253
-4.57678
-4.57678
-5.0769
-5.0769
-4.43993
-4.43993
-3.8167
-3.8167
-4.56252
-4.56252
17.0849
17.0849
-3.84221
-3.84221
-4.4235
-4.4235
1825.39
1825.39
-3.88413
-3.88413
1483.26
1483.26
1272.23
1272.23
-4.22253
-4.22253
-3.76903
-3.76903
-3.7538
-3.7538
5.95767
5.95767
290.985
290.985
-4.70735
-4.70735
-3.78882
-3.78882
55.106
55.106
2.99721
2.99721
-4.85203
-4.85203
282.832
282.832
-4.13628
-4.13628
378.454
378.454
-4.65
-4.65
823.13
823.13
1173.54
1173.54
116.605
116.605
-3.98189
-3.98189
1080.25
1080.25
-5.56478
-5.56478
641.729
641.729
641.729
-5.17967
-5.17967
-3.66873
-3.66873
118.117
118.117
-4.84476
-4.84476
-5.25522
-5.25522
3.41829
3.41829
-2.94139
-2.94139
-3.92828
-3.92828
58.6082
58.6082
58.5191
58.5191
-4.01699
-4.01699
-4.92479
-4.92479
2.9798
2.9798
-5.68359
-5.68359
-3.74647
-3.74647
14.459
14.459
409.703
409.703
3.07634
3.07634
1651.99
1651.99
-4.85283
-4.85283
-5.0465
-5.0465
-5.13251
-5.13251
-4.67534
-4.67534
-3.88976
-3.88976
1286.68
1286.68
2.74424
2.74424
-3.73122
-3.73122
-3.96283
-3.96283
1384.24
1384.24
-3.72453
-3.72453
-4.01584
-4.01584
-3.96933
-3.96933
-5.45035
-5.45035
5.56334
5.56334
-4.94618
-4.94618
-4.92625
-4.92625
30.0343
30.0343
-5.15282
-5.15282
4.91448
4.91448
1281.41
1281.41
289.734
289.734
-5.2755
-5.2755
-4.71277
-4.71277
-3.79409
-3.79409
444.259
444.259
183.72
183.72
2.72811
2.72811
-3.8985
-3.8985
-4.33997
-4.33997
-3.88278
-3.88278
-5.51034
-5.51034
11.4214
11.4214
154.567
154.567
103.482
103.482
-4.23875
-4.23875
-5.12586
-5.12586
1679.1
1679.1
314.922
314.922
1459.54
1459.54
-4.17537
-4.17537
-4.57771
-4.57771
-3.11345
-3.11345
2.66147
2.66147
-4.10545
-4.10545
-3.70742
-3.70742
-3.8466
-3.8466
-4.26424
-4.26424
-3.68762
-3.68762
-4.52624
-4.52624
-4.71817
-4.71817
16.1897
16.1897
106.041
106.041
-4.791
-4.791
23.4558
23.4558
2.88946
2.88946
-4.73809
-4.73809
-3.79105
-3.79105
-4.04218
-4.04218
-4.91707
-4.91707
95.5444
95.5444
-3.72142
-3.72142
4.55176
4.55176
391.677
391.677
-5.61212
-5.61212
3.04612
3.04612
-2.14263
-2.14263
2.6003
2.6003
9.81817
9.81817
1611.46
1611.46
-4.70868
-4.70868
-5.03623
-5.03623
1496.18
1496.18
729.565
729.565
1290.56
1290.56
2.86039
2.86039
35.6524
35.6524
4.26596
4.26596
-3.68785
-3.68785
-3.95327
-3.95327
66.0735
66.0735
-3.74731
-3.74731
-3.3565
-3.3565
-5.3094
-5.3094
-3.93448
-3.93448
4.43067
4.43067
60.2638
60.2638
-3.52697
-3.52697
2.63878
2.63878
-4.69685
-4.69685
14.9122
14.9122
5.67007
5.67007
4.1359
4.1359
898.346
898.346
-3.88455
-3.88455
934.955
934.955
2.92432
2.92432
134.643
134.643
63.2869
63.2869
1709.17
1709.17
272.354
272.354
-3.76641
-3.76641
-3.86327
-3.86327
-3.75606
-3.75606
2.61034
2.61034
-3.91057
-3.91057
-5.04466
-5.04466
-5.16095
-5.16095
47.4213
47.4213
-3.70686
-3.70686
4.21052
4.21052
4.90667
4.90667
1516.1
1516.1
-4.18444
-4.18444
4.07876
4.07876
5.20714
5.20714
16.0713
16.0713
-4.85058
-4.85058
29.1488
29.1488
4.09896
4.09896
4.26827
4.26827
-4.32989
-4.32989
3.4504
3.4504
-3.84828
-3.84828
-0.19076
-0.19076
720.929
720.929
2.66266
2.66266
17.9922
17.9922
4.12085
4.12085
4.12777
4.12777
-4.11371
-4.11371
-2.81573
-2.81573
-3.74428
-3.74428
-4.88552
-4.88552
3.09224
3.09224
4.10398
4.10398
-4.44372
-4.44372
-5.67321
-5.67321
-5.57514
-5.57514
2.33363
2.33363
0.95945
0.95945
5.74793
5.74793
-3.73616
-3.73616
1067.35
1067.35
3.4266
3.4266
1320.18
1320.18
-5.15353
-5.15353
6.69895
6.69895
-3.79078
-3.79078
2.77964
2.77964
-5.25728
-5.25728
-4.9098
-4.9098
1658.23
1658.23
4.08426
4.08426
-2.23687
-2.23687
-4.02032
-4.02032
-3.81829
-3.81829
-3.90476
-3.90476
134.73
134.73
-5.34794
-5.34794
-3.71504
-3.71504
4.39508
4.39508
-4.47935
-4.47935
-4.61652
-4.61652
6.38622
6.38622
29.9176
29.9176
-5.36453
-5.36453
-3.74172
-3.74172
3.21213
3.21213
2.33543
2.33543
4.0974
4.0974
-5.2266
-5.2266
1145.63
1145.63
-5.58955
-5.58955
-3.97351
-3.97351
39.5272
39.5272
66.2321
66.2321
1.90669
1.90669
-6.15857
-6.15857
-4.29894
-4.29894
-4.71436
-4.71436
7.94344
7.94344
-4.94443
-4.94443
-5.29859
-5.29859
1659.51
1659.51
2.77435
2.77435
67.4662
67.4662
-3.83462
-3.83462
-5.18601
-5.18601
4.54745
4.54745
70.3023
70.3023
2.92297
2.92297
-3.71517
-3.71517
-6.28445
-6.28445
3.69837
3.69837
7.29246
7.29246
4.17198
4.17198
-3.69987
-3.69987
-3.90477
-3.90477
69.4856
69.4856
-4.34286
-4.34286
1236.73
1236.73
30.5942
30.5942
2.54481
2.54481
1.95928
1.95928
1.48537
1.48537
-3.77496
-3.77496
60.0725
60.0725
-3.82361
-3.82361
-4.87667
-4.87667
-3.87214
-3.87214
-5.03522
-5.03522
7.18187
7.18187
4.09477
4.09477
4.33576
4.33576
-4.16924
-4.16924
-4.24473
-4.24473
-4.90467
-4.90467
5.00252
5.00252
329.189
329.189
-5.41078
-5.41078
29.772
29.772
1116.44
1116.44
-4.0765
-4.0765
4.15539
4.15539
0.553678
0.553678
-5.93948
-5.93948
-3.87625
-3.87625
-4.97739
-4.97739
2.80272
2.80272
-4.40214
-4.40214
4.01529
4.01529
-3.72022
-3.72022
1.63846
1.63846
1.48173
1.48173
-3.8225
-3.8225
3.2275
3.2275
-4.93275
-4.93275
1460.22
1460.22
4.0512
4.0512
-4.70568
-4.70568
0.904875
0.904875
-5.04309
-5.04309
-4.0264
-4.0264
2.21173
2.21173
2.58885
2.58885
4.04741
4.04741
40.8725
40.8725
1126.7
1126.7
-1.93805
-1.93805
-4.63779
-4.63779
70.1711
70.1711
2.95517
2.95517
-4.52255
-4.52255
402.767
402.767
-3.70526
-3.70526
25.81
25.81
-3.75337
-3.75337
4.16979
4.16979
28.2131
28.2131
814.367
814.367
133.675
133.675
133.675
4.03857
4.03857
1528.07
1528.07
-3.95777
-3.95777
70.8821
70.8821
3.46027
3.46027
1068.36
1068.36
1.37629
1.37629
15.5308
15.5308
661.527
661.527
32.7932
32.7932
-4.76321
-4.76321
-4.38575
-4.38575
3.10106
3.10106
4.03101
4.03101
17.0704
17.0704
-3.79874
-3.79874
4.14991
4.14991
-3.92315
-3.92315
1153.86
1153.86
1.70248
1.70248
4.02903
4.02903
2.26361
2.26361
-3.92271
-3.92271
5.46962
5.46962
-4.08766
-4.08766
-2.0674
-2.0674
998.838
998.838
583.644