/*--------------------------------*- C++ -*----------------------------------*\
  =========                 |
  \\      /  F ield         | OpenFOAM: The Open Source CFD Toolbox
   \\    /   O peration     | Website:  https://openfoam.org
    \\  /    A nd           | Version:  8
     \\/     M anipulation  |
\*---------------------------------------------------------------------------*/
FoamFile
{
    version     2.0;
    format      ascii;
    class       surfaceScalarField;
    location    "0.45";
    object      phi;
}
// * * * * * * * * * * * * * * * * * * * * * * * * * * * * * * * * * * * * * //

dimensions      [0 3 -1 0 0 0 0];

internalField   nonuniform List<scalar> 
2805
(
0.000607558
-0.000250128
-0.000357431
0.000346087
0.000261471
-8.2432e-06
-0.000556749
0.000564992
0.000372528
-0.000380771
0.000515566
-0.000169479
-0.000509772
0.0008823
0.000280414
-0.000790186
-0.00107806
0.00135847
3.10157e-05
-0.00110907
-0.000489457
-6.72912e-05
-0.00164716
0.00167817
4.01707e-05
-0.00168733
0.00153819
-0.00131541
-0.000222785
-0.00170546
0.00174563
-4.27938e-05
0.00168344
-0.00164065
0.00140808
-0.00145088
0.00157508
-3.68843e-05
-0.000307748
-0.00139771
5.32093e-05
-0.000303337
-0.00175101
0.00144326
0.00133362
-0.000191995
-0.00114162
-0.000777462
0.00175794
-0.000980482
-0.000952187
0.0020234
-0.00107121
-0.000580026
-0.00117098
-0.00155385
0.000776393
-0.00129617
0.00147298
-0.000176807
-0.000926058
-0.000370114
0.000906086
0.000135867
-0.00104195
-0.000157644
7.82218e-05
7.94225e-05
-0.000749318
0.000113713
0.000635605
-0.00115224
0.000200053
-0.000986985
-0.00056687
0.000349452
-0.000251259
-9.81927e-05
0.00122438
0.000350703
0.000659976
0.00024611
-3.41596e-05
0.00205756
-0.00180487
0.000817883
-0.000271342
0.000113697
-0.000869972
0.000120654
7.21353e-05
-0.000680147
-0.00112472
0.000893488
0.00044013
0.000792831
0.000668683
-0.0017399
-0.00031299
0.000953124
-0.000640134
-0.000288797
-9.71248e-05
0.000385922
-0.000302434
0.000841364
-0.00053893
0.000309954
-0.000151507
-0.000158447
0.000345541
-0.0014525
0.00110696
-0.000883372
0.000908603
-2.52307e-05
0.000842615
-0.0009648
0.000122185
-0.000421921
0.000374572
0.00138337
-9.97808e-05
0.000942396
-0.000306476
0.000281268
2.52082e-05
0.000170519
-0.000249225
-3.03529e-06
0.000188635
-0.00019167
-0.00165966
0.00162828
3.13817e-05
-0.000737446
0.00140613
0.000209736
0.00119835
0.000852886
-0.00159033
0.000696932
-0.000901401
0.000204469
0.000370868
-0.000470649
-4.59604e-05
-0.000105547
-0.00221962
-0.000225874
0.0024455
0.00158989
-0.00162405
-0.000210576
0.00024136
-0.00120616
0.000367883
-0.000432068
6.41852e-05
0.00117047
-0.000960738
-0.00017304
-0.000486836
0.000600549
-3.73279e-05
-0.000449508
5.72364e-05
5.51616e-05
-0.000112398
0.000286903
-0.000332864
-0.000512799
0.000475471
-0.000649435
0.000490988
0.00109425
0.00123835
-0.00147778
0.000239423
0.000546609
-0.00147267
-0.000719834
0.000549397
0.000170437
2.24342e-06
-0.000194238
-7.9791e-06
0.00154848
4.14147e-05
0.000324502
0.00228906
-0.000605625
-0.000537831
1.21851e-05
0.000355698
0.000665347
-0.00288497
-0.000638706
0.00118532
-0.000403601
-0.000412476
-6.69435e-05
0.000479419
0.000402268
-0.000390082
-0.000140915
0.000511783
0.000101386
0.000185517
0.00135645
-0.000118098
-0.00222884
0.00056918
0.000426423
-0.000369186
-0.000667013
0.000703531
-3.6518e-05
0.000404511
-0.0017636
-0.000465248
0.000341629
-0.000980335
0.000267935
-0.00068041
-0.000959263
0.000438704
0.000520559
-0.000899093
7.96284e-05
0.000819465
-0.000133317
0.000401251
0.000361679
0.0012666
-0.000470544
-0.000398057
0.000499443
0.000369274
-0.00057985
0.000244224
0.000348456
-0.000830344
0.000481888
-0.000318826
-0.000330609
-0.000184989
-9.24882e-06
-0.000102021
-0.00101835
-0.000432528
0.00194375
-0.00154232
-0.000401437
-0.000651689
5.16003e-05
-5.95794e-05
-0.00207246
0.0019896
8.28636e-05
-0.000233021
0.000170709
-0.00111872
0.000892848
0.000492161
-0.000256971
-0.00023519
0.000232166
-0.000177005
0.00026187
-0.000774669
-0.00010127
-0.000647577
0.00166141
-0.00101384
0.000153065
-0.000551122
-0.000195562
-0.000270829
0.000178536
9.2293e-05
-0.000371378
-1.74103e-05
-2.95572e-05
-0.000650853
0.000500221
-0.000386524
0.00103353
-0.00161355
0.000490333
0.000218955
5.17526e-05
0.000779496
-0.000779496
0.000418167
-0.000418167
-0.000979788
0.000877767
-0.00102851
0.000380933
0.000358844
-5.64533e-06
0.00111045
-0.000748775
-0.000292445
0.0022362
0.000296265
0.000253132
-0.00207246
-0.000166521
0.000398687
-0.00110247
0.000906906
-9.74881e-05
-0.000580221
0.00032325
0.00178497
0.000204634
-0.000423042
-0.000585636
0.000738701
-0.000491452
0.000534293
-4.28404e-05
-0.000471021
-0.000359323
-0.000383227
-0.000224701
-0.0021049
3.24398e-05
-0.000438774
0.000612604
-0.00017383
-0.000264747
0.000372062
-0.000952283
0.000604052
0.00118091
-0.000198939
-0.000452751
-0.000752123
9.00567e-05
-0.000341316
-0.00145808
0.00136059
-0.000507093
-0.000452169
0.000910809
0.000389474
-0.000156288
-0.000276243
0.000432531
0.000164584
0.00019065
-0.000126465
0.000413936
0.00164362
-0.00150109
0.00127639
0.00015133
0.000432559
-0.000583889
-0.00155443
0.000536084
-0.000807912
0.00030894
0.000498972
-0.000141985
0.000514047
-0.000323154
-0.00112935
0.000780482
6.08826e-05
0.000215605
-0.000382125
0.000385236
0.000545124
-0.00093036
-0.000750061
-0.00090949
0.000550166
2.07669e-05
0.000338077
-9.96098e-05
0.000153308
-0.000738945
-0.000140501
0.00104633
-0.00118832
-0.0021049
0.00024199
0.00110888
-0.00135087
-0.000389575
0.000233287
-7.06887e-05
-0.000318886
-0.0002858
0.000519087
0.000319975
0.000517791
-0.000782537
0.00171461
-0.00181422
0.000536566
-0.00187245
0.00173195
-0.000209935
0.00042554
0.000393041
0.000178536
-0.00213994
3.50319e-05
6.73414e-05
0.000529938
-0.00181477
0.00128483
0.000107523
0.000938809
0.000787114
0.000700574
-0.000248942
0.0013594
-0.000255476
-0.000157841
-0.000500128
-0.000274541
6.77737e-05
-0.000321016
-0.000434492
-0.00143849
0.00196843
-0.000136047
4.0916e-05
0.00106797
-0.00079185
0.000945158
-2.67918e-05
-0.000648031
0.000674823
0.00165565
-0.00154813
0.000316422
-0.000602222
0.000373561
-9.22931e-05
0.00349818
-0.00238259
-0.00111559
0.000361871
0.00159404
-0.00155312
0.000534293
-0.000265082
-0.00154969
-0.00223805
0.00208021
0.000643285
-0.00107778
-0.00213994
-0.000427071
-0.00112736
-8.01039e-05
0.00061667
-0.00147198
0.00120689
0.000269148
-0.000479083
0.000910284
4.28404e-05
2.95882e-06
0.00199269
-0.00212874
0.000574991
-0.000332441
-0.000533885
-0.000130788
-0.00143079
-0.00070915
0.00011249
0.00154316
-0.000715196
-0.000188872
-0.000561188
0.00019405
-0.00163254
-0.000809576
0.000632769
-0.000497848
-0.000267144
0.000764992
-0.000251113
-0.000245354
0.000262934
-0.000545031
0.000952201
-4.13915e-05
0.000368133
-0.00117674
0.000609867
-0.000105225
-0.000344283
0.00119834
-0.000758206
0.000101841
-0.00055401
-0.000358019
0.000240566
-0.000218708
0.00053513
-0.000142509
4.46064e-05
0.000746644
-7.18285e-05
-0.000674816
0.0015426
0.00195557
-0.000650663
-0.000827113
-0.000383109
0.000314933
0.0012791
0.00019171
-0.000240351
0.000371575
-0.00143079
-0.00171724
0.00217117
-0.00205868
-7.09926e-06
-5.24802e-05
4.62417e-05
-0.000838092
-0.00166141
0.000230627
-0.00269454
0.00244918
-0.000577952
0.000909363
-0.00145439
6.948e-05
5.1174e-05
0.00195249
-0.00163756
-0.00017224
-0.00137745
-3.44795e-05
0.000135559
0.000477045
-0.00157309
0.00176714
-6.63396e-05
0.000335488
-0.000398287
-0.00180478
-0.000886067
3.69078e-05
-0.00150888
0.000236368
-0.00048531
0.00219251
-0.00257562
0.000652606
0.000329814
-0.00098242
0.00165069
-0.000452356
-0.00115662
0.00119353
0.0004795
-0.00096115
0.000428499
0.00172895
-0.0020214
0.000256087
0.00191508
0.00152488
-0.000992923
-0.000531961
-0.000927817
0.00142791
-0.000320955
-0.000502028
-0.000638765
0.000617854
-3.57451e-05
0.000451687
-0.000670395
0.000390327
0.00055479
-0.000419232
0.000794907
-0.00116502
0.000128212
-0.000798683
0.000670471
0.000209162
0.000580778
0.000194221
-0.00132271
0.00136895
0.000376319
0.000408825
0.00203667
0.000920429
0.000604455
-0.00113236
0.000181408
-0.000455949
0.00047292
0.00147957
0.00157398
0.00126969
-0.00190845
0.00270955
-0.00245347
-0.00106407
-0.000519819
0.000339378
0.00182935
-0.00105296
0.000379405
-0.000445744
-0.00140499
-0.000168106
-0.000612062
-0.000348676
0.00119801
-0.000305157
-0.000120792
0.00184975
0.00185581
-0.00106298
-0.000787425
0.000613595
0.00043727
-0.00181472
0.000411089
0.000162492
-0.000696377
-0.000643814
0.0014196
-0.000775782
-0.00308357
0.00258154
-0.000418178
0.000897678
-0.000443393
0.000302477
0.00247888
-0.00200596
-0.000581092
-0.00122369
-0.00107161
0.0015417
0.000413875
0.000679072
0.000667882
0.00083643
-0.000140916
0.000592603
0.000552685
0.00215687
-0.000788987
0.00025274
-0.00140936
-0.000312506
0.00139866
-0.00223284
0.00180577
0.0015947
-0.000409386
0.000126465
4.42438e-05
-0.00198608
-0.00180875
0.00176407
-0.00115421
0.000436662
0.000761344
-0.0001754
-0.000391518
-0.000465653
0.00123066
-0.000294076
-0.000883662
0.0011364
-0.000162875
0.00195052
0.000785125
-0.00124057
0.00100091
-8.04852e-05
0.000602314
0.00207609
-3.94142e-05
0.00229469
-0.00308368
0.00173755
-0.00110478
0.000711113
-0.000395711
-0.000927001
-0.000781204
-0.000483202
-0.000545308
0.000236104
-0.000634391
0.00023027
0.000149135
0.0001214
0.000604052
0.000519356
0.00105463
0.000115096
-0.00111444
0.000999343
0.00177093
0.000674571
0.000774173
0.0017047
0.00133029
-0.000329381
-0.000591827
-0.00249174
0.000839637
0.00336071
-0.00280803
-0.00109789
0.00133425
0.000271947
-0.00092261
0.000884316
-0.002108
0.000540251
-0.00156982
0.00102957
0.000693664
-0.0009304
0.000639789
-0.000780705
-0.000712016
0.000746576
0.00181719
-0.00113811
0.000604576
-0.00167619
-0.000257314
-0.000670503
-0.000100513
0.000151687
0.00138054
-0.000544109
0.00136056
-0.00040836
0.000933231
-0.000526736
0.00122521
0.000330295
0.00114
-0.00147029
-0.000158778
0.000951176
-0.000804783
0.00185896
-0.000649046
-0.00120991
-0.00224404
0.00066298
0.000470916
0.00172733
-0.000942207
-0.000120217
0.000554928
-7.78831e-05
0.00171369
-0.000952342
0.00287918
-0.00210501
-0.000219845
-0.000380106
0.00162851
0.000322018
-0.00127267
0.00130005
0.00179486
-0.00154655
0.00115084
0.000622553
0.000898998
0.000446839
-0.0013305
-0.0010605
-0.000925576
-0.000942789
0.00127308
-0.000559108
0.000383708
0.000311622
-0.000831441
0.00176295
-0.00105183
0.00138919
3.87148e-05
0.00129341
0.000618397
-0.000388127
0.00158909
0.00228223
-0.000511299
0.000834384
0.00252633
0.000205146
-0.000470162
0.00184201
-0.00116744
0.000235444
0.00109485
0.000475624
-0.000511369
-0.000667599
-0.000259072
0.000898861
-0.000384755
-0.000438639
0.000265599
-0.00288107
0.00228924
0.000843582
0.000870104
-0.000832691
5.14868e-05
-0.00265431
0.00249553
0.000305853
0.00132989
0.00121884
0.000703897
0.00187603
-0.000924853
1.37671e-05
-0.00224661
0.00180244
-0.000577231
-0.00109541
0.0014066
0.00139408
0.00137544
-9.65222e-05
0.00100275
-0.00193316
0.0003924
-0.00110442
0.000284473
0.000226191
0.000707039
0.000933821
0.000164398
0.000390393
-0.000673436
-0.00233317
-0.000309789
0.00188043
-0.00121745
0.000709692
-0.000601591
-0.000496294
-0.00142327
-0.000684738
0.00185516
-0.00123261
0.000476025
0.00082403
0.000736792
-0.00154157
0.000390481
-0.000781999
-0.00053021
0.000548208
0.000241742
0.00133273
0.000256363
0.000821432
0.000828599
-0.000266024
-0.00244917
-0.000448983
4.46942e-05
0.00122839
-0.00234884
0.000443808
-0.000970544
-0.000593709
0.00239861
0.00121355
0.000463575
-0.000626449
0.00111657
0.000289561
0.000687719
0.00361658
-0.00278219
0.00102343
0.000269979
-0.00105688
-0.0018242
0.00157087
0.00112832
0.000420153
0.000499408
0.000118989
-0.000515799
0.00184568
-0.000312492
-0.000962461
0.000703389
0.00182874
-0.00112485
0.000903801
0.000315038
0.000453598
-0.0002892
0.000545492
0.000548753
-0.00024391
0.00061181
-0.00127941
0.00247795
-0.00108387
-0.000395614
0.000295101
-0.00117289
0.000271493
-0.00100872
0.00187882
-0.000944165
-0.000602389
0.0015531
-0.000371471
0.000677324
-0.00107587
-7.36351e-05
0.00144908
0.00181124
-0.000877415
0.00166857
0.00153051
0.000493778
-0.000371593
-4.14515e-05
0.000431844
-0.000286952
0.000611291
0.00106813
-5.56045e-05
0.000335569
0.000587889
-0.0015284
-0.000387633
0.000642178
8.00098e-05
0.00172783
-0.000492607
0.000782165
0.00057863
7.05865e-05
0.000477622
0.000544751
-0.000764596
0.000916739
-9.5307e-05
0.00124144
0.000402177
0.000858827
0.00106374
-0.00173718
9.20917e-06
-0.00155153
0.00152525
-0.000696649
-0.000468616
0.00075309
0.000132378
0.000326949
-0.000686606
0.000215957
0.000835053
-0.0014699
-0.000463259
0.00114019
-0.00126098
0.000586474
-0.00111668
-7.98533e-05
0.00190792
-0.0012202
0.00115475
0.000217134
2.34327e-05
-0.000192828
0.000177161
-0.000477832
0.00040094
-0.000918761
0.000248258
0.000836964
-0.000733363
0.00100334
-0.000404226
-3.91673e-05
-0.00215463
0.00107575
0.00254083
-0.00148941
0.000316513
-5.22939e-05
0.00162317
0.00123219
-0.000259121
0.000522555
-0.000907311
-0.00107383
-0.00045457
0.00118169
-4.15051e-05
0.000783076
-0.000527399
0.0016616
-0.000429451
-0.000665955
0.00184029
0.000952205
0.000926619
0.000761054
0.000897693
-0.000398284
0.000492063
-0.000276106
0.00032237
-5.08774e-05
0.000849076
-0.00144279
-0.00038407
-0.000466895
0.00172146
-0.00111017
-0.00292236
0.00260987
-4.77943e-05
0.00101827
0.000512231
0.000483589
0.00144558
0.00170602
-3.74418e-05
-0.000974123
0.00052514
0.00253365
-0.000980556
-0.000243939
0.00111638
0.00139678
8.78376e-05
0.00165624
0.000513477
-0.00222484
0.00114097
-0.000430333
0.000192013
-0.000129602
0.000465171
2.99838e-05
0.00169785
0.00194126
-0.00136263
-0.00087881
0.000277218
-0.00203109
-0.000317752
0.00102481
-0.00259838
0.00261215
-0.00144267
-9.34576e-05
0.00116158
0.00034802
0.00328738
0.00142045
0.00023161
9.53386e-05
0.000929197
7.41444e-05
-0.000259444
0.000721058
0.00171523
-0.000521956
0.00028164
0.000553413
-8.16983e-05
0.000761298
-0.0012539
0.000136303
-0.00122381
0.00181011
-0.00102703
-0.000221034
-0.000221938
0.00137669
0.00165315
0.0003288
0.00151149
0.00063609
-0.00102372
0.00155162
-0.000145013
-0.00255849
-0.000355386
-0.00278998
-0.00152297
0.000447097
-0.000320646
0.000497807
0.00156028
0.000101319
-0.00143355
-0.000303631
-0.00189681
-0.00069548
0.0016221
0.00128351
-0.000446542
0.000699935
-0.000172324
0.000785981
-0.000385041
0.00041259
-0.000107462
-0.000305128
0.00110961
-0.00158745
0.00079387
8.4731e-05
-0.00180922
0.000478263
0.00245663
-0.000800388
0.000835741
-0.00198271
-0.000171921
0.00152284
0.000651902
-0.000895812
0.00202665
0.000512862
0.000511953
0.00075458
-0.00113865
0.00153924
-0.000422858
-0.00212132
0.00114077
0.000930962
-0.000530171
0.000337343
-0.000980354
-1.68623e-05
0.000208876
0.00109399
-0.000333171
-0.000266632
0.00166342
0.000939646
0.000232767
0.000448309
0.000271187
0.000141403
0.00189885
-0.00117779
0.000306572
4.14472e-05
-0.000693319
0.000767463
-0.00230046
0.000142084
-0.000149183
-0.000112694
-0.000587615
0.0010712
-0.00027122
0.00103913
0.000381324
-0.000997832
-4.42438e-05
9.76434e-06
-0.000446547
0.00017044
0.000523646
0.000374047
0.000949816
-0.00138015
0.000401911
-0.000306173
-0.000308444
2.13718e-08
0.000308423
0.00202435
0.000588026
0.000871816
0.000339439
-0.000108419
0.000976745
0.000645355
0.000845923
-3.23639e-05
0.000485163
-0.00034886
-0.000269143
-0.000281478
0.000184128
9.73495e-05
-0.00120906
-0.000613595
0.000535712
-0.000346
0.00199915
0.00114045
0.00111006
-0.000304088
0.00107477
-0.000374834
-0.00162459
0.000745784
-0.000500739
-1.3926e-05
-0.000302808
0.000316734
0.00128142
-0.000545485
0.000840586
-0.000109203
9.42188e-05
-0.00057742
0.00038913
0.000839096
-0.000759086
0.000100123
0.00067738
-0.00327576
0.000891605
-0.00124699
0.00158672
0.00153048
-7.64824e-06
0.00175539
-0.000661399
-0.000450751
0.0024774
0.000291998
0.000501872
0.00179196
-0.000651198
-0.00128095
0.00105991
0.000991577
-2.24624e-05
0.000454307
0.000763088
-0.000314779
0.00104995
0.00139257
-0.0016962
0.00131742
0.000577603
0.000673322
-0.000287418
0.000758837
0.000737192
-0.000996636
-0.00192979
0.00175747
0.000345647
0.00231836
0.000758404
-0.000806198
-0.00179951
-0.000973203
-7.15102e-06
0.00182354
-0.00199546
0.00040272
0.00122431
-0.000134485
0.000901949
-7.32719e-05
0.000804535
-0.000809726
0.00283407
-0.000247045
-0.000194872
-0.000363959
-0.000600321
0.00096428
-0.00108162
-0.000258699
0.00109444
-0.000550189
0.00121919
-0.000347371
-0.000347862
6.09105e-05
0.000820209
-0.00109143
5.36596e-05
1.37047e-05
-0.000209742
0.000936584
-0.000534673
0.0015484
0.000753928
-0.000835627
0.00115421
-0.00148738
0.000380258
0.000281479
-0.000320646
-0.000370799
0.00131044
0.000882462
0.000257984
-0.000499458
0.00114481
-0.000192135
0.000424902
0.000844353
0.000751134
-0.00115257
0.00133192
-0.000486
0.00382225
-0.00248631
0.000185844
0.000309738
-0.000936022
0.00127546
-0.000225936
0.00166767
0.00142002
-0.000831991
0.000587724
0.000874814
-0.00207267
0.00107484
0.000912616
-0.00118176
-0.000462239
0.0015723
0.00115968
-0.000168101
-0.00127231
0.00285903
0.000498279
-0.00015862
-0.00090099
0.000401533
0.00104119
-0.00134528
0.00137942
-0.00137942
0.00015989
0.000320645
-0.000232808
-0.000758476
0.000107278
0.00072617
-0.000148567
0.000537101
-0.000719753
0.000585267
-0.000765627
0.00156176
-0.000976277
0.00136541
0.000643249
-0.00243053
0.00152056
-0.00142044
0.000324377
0.000348945
-0.000176427
-0.00101276
0.000652678
-0.000940096
0.00061217
-0.000585778
0.0019032
-0.000314417
0.000282053
0.000885639
-0.000998334
0.000519026
-0.00243265
0.000337899
0.00082004
1.90561e-05
0.00105567
-0.000296829
0.00182159
-0.00101706
0.000110485
0.000378799
0.000582361
-3.66692e-05
-0.000205803
0.000723642
-0.000671187
0.000798189
-0.000127003
-0.000794572
0.00234297
0.000274555
-0.000178814
-0.000712692
-9.76433e-06
-0.000528067
-0.000804404
-0.00151113
0.000287321
0.000848206
0.000168537
-6.82756e-07
-0.00024962
-0.00137497
-0.00184813
0.00269249
0.00128692
-0.00123782
0.000584541
0.00044347
-0.0011851
0.00285278
0.00101785
-0.0012649
-0.000371575
0.000513659
0.00299254
-0.00231516
0.00167764
-0.00175091
-1.85655e-05
0.00136714
-0.00156201
-0.00181252
0.00160277
0.000569666
-0.00280718
0.00100767
0.000749837
0.000124978
-5.22696e-05
0.00098652
-0.000249927
0.000140724
1.55424e-05
0.000482737
0.0010109
-0.00219148
0.000196022
5.81472e-06
0.000303923
0.000101141
6.13684e-06
-0.00200564
-6.69607e-05
0.000492724
-0.000120247
0.000495419
-0.000495419
3.2126e-05
0.00220697
-0.00161925
0.000354759
-0.000133025
0.00110862
0.00093013
-0.00108875
5.00122e-05
-0.00173234
-0.00179384
0.00335561
4.83949e-06
0.000403164
-0.000408004
0.00120148
-0.00142742
0.000713168
-0.000163907
0.00021645
-0.000982077
0.00115787
-0.00044711
-0.0026083
0.0029871
0.000909578
-0.00032431
0.00168786
-0.00134996
0.00125
-0.00126593
0.00166746
-0.000436878
0.00108013
-0.000587954
0.00078653
0.00100141
-0.00117784
-0.000620587
0.00111601
-0.000143793
0.000578437
0.000232807
-6.23666e-05
-0.000194312
0.00105893
0.000670803
0.00039676
0.000185601
-0.00276672
0.00175396
0.00117245
-0.000560284
8.41869e-05
-0.000553556
0.0012772
0.00202707
-0.00150804
0.00050136
0.000521738
-0.00183237
0.00200091
4.42059e-05
0.000410101
0.00112736
-0.00133316
-0.000669855
0.00151806
0.00130575
0.000662678
-9.38472e-05
0.000204332
0.00287284
-0.00158592
0.000559888
-0.00260803
0.00361893
-0.00101653
0.000949572
0.000210076
0.00108188
-0.0012607
-0.000821408
0.00180793
-6.8204e-05
-0.000533795
-0.0022681
-0.00145022
0.00204505
-0.00229467
0.00108643
-0.0010803
0.00228038
-0.00183691
-3.64783e-05
-0.00116395
0.000104357
0.000962573
-0.000392907
-0.00104311
0.00215173
-0.00317872
0.00304569
0.00263827
-0.00205373
0.000747578
0.000365178
-4.84442e-05
-0.000310939
0.000324643
0.0004727
0.000851412
0.00125359
-0.000137539
-0.00136957
0.00252744
0.000526572
-8.73391e-05
-0.000750177
0.000425867
0.00155566
0.000471407
0.000289734
4.76007e-07
-0.000191616
0.000183952
0.000170807
0.000422276
-0.000164913
0.000607344
-0.00344572
0.00171338
-8.69816e-05
0.00157193
-0.0015905
0.000271598
9.35805e-05
-0.00182117
0.0028801
0.000369553
-0.00266784
0.00222073
0.0016057
-0.00180001
9.92435e-06
0.00136024
-0.00148049
0.000255738
-0.00196293
0.000696653
-0.00339555
0.00347974
0.00193419
-0.00173817
-0.00331971
0.00100455
0.000183281
0.00105626
-9.59566e-05
0.00117018
-0.00133408
0.00232867
-0.00165786
0.000764819
0.00289881
-0.00211228
-0.000841539
0.000495346
1.81308e-05
0.000402289
-6.71776e-05
0.000772346
-6.61861e-05
9.83121e-05
0.000138146
0.000782159
-0.00125796
0.000380279
0.000223376
0.000762443
-0.000261082
-0.00169176
0.00116152
0.000801356
-0.000666937
-0.00363987
0.00310607
0.0012577
-0.0014015
-0.00224915
0.00116886
-0.00129958
0.000742751
0.000706278
-0.00249462
0.000488982
0.000481657
4.00815e-05
-0.00236392
0.0031115
0.000909894
0.001186
-0.000594175
-0.00193473
0.000845079
0.00107981
-0.000607106
0.00226644
-0.00216208
0.000369536
-0.000737715
0.00126429
-2.36177e-05
0.000482133
-9.05195e-05
-0.0036707
0.0014026
-0.00359342
0.00340181
-7.54568e-05
8.98566e-05
0.000120219
-0.00341909
0.00225514
0.000260663
0.000516173
-0.000876568
0.00148391
0.000303513
0.00311403
-0.00186044
6.2367e-05
7.83567e-05
-0.00291366
0.00274875
-0.00104448
0.00174113
-0.000113681
0.000909811
-0.000890755
0.00213839
-0.00188265
-0.00126284
0.00202766
-0.000196978
4.77953e-05
-0.000430291
0.000580717
-0.000150426
0.000918923
-0.000493055
0.00125551
-0.00139305
0.000245034
-0.00119835
-0.00279123
0.000496563
-0.00154108
0.00232324
0.00264132
-0.00235159
0.000890755
-0.000891438
-0.000909812
0.00118437
-0.00288386
0.00310724
0.000480526
-0.00195732
0.00100175
0.000314152
5.5401e-05
0.000342091
-0.00188133
0.00258761
-0.000608483
0.00103076
-0.000943708
0.000891438
-0.00428212
0.00298254
-0.000486606
0.000174378
0.000312228
0.000863861
-0.000461572
0.00338446
-0.0022156
0.00289177
-0.00242036
-0.00117605
0.000354234
0.00322449
-0.00245215
-0.000281478
-0.000557294
0.00022764
0.0017469
-0.00156362
0.000387719
-0.00381719
0.00322301
0.00122238
0.000319635
-0.0034102
0.00274327
0.000156406
0.00150181
-0.00149188
0.000301599
0.00254841
-0.00180566
0.00043943
-0.000893695
-7.85683e-05
-0.000272339
0.00318912
-0.00238777
-0.0037789
0.00208714
0.00047829
0.000311818
-0.000415381
2.13179e-05
0.00137708
-0.00144426
-7.99916e-05
0.000200211
0.000486579
-0.000661458
5.81543e-05
0.000705941
-0.000336405
-0.00225167
0.00276784
0.000893696
-0.0009619
-0.00313023
0.00301655
0.000441915
-0.00118437
0.00167709
4.52481e-05
5.68896e-05
-0.000102138
0.000687963
-2.44164e-05
-0.00152376
-0.00246701
0.000115427
-0.00191711
-0.00213166
0.000393486
-7.51611e-05
0.00309815
-0.00225307
6.43075e-05
0.000315972
0.00235425
-0.00210922
-0.00248772
0.000961899
-0.00104924
-2.2996e-05
-4.52481e-05
-0.000217134
0.000262382
0.000215215
4.54489e-05
0.000471601
0.00131033
-0.00138579
0.00033594
-0.00164267
-0.000767157
0.000274102
0.000255377
0.000270615
0.000424753
0.00235818
-0.00187765
-0.000325162
0.000276718
-0.000291373
0.000804135
0.000736974
0.000244369
-0.00371087
0.00251252
0.000263602
0.00276308
-0.00226652
-0.00093226
0.00127435
-7.83571e-05
0.000176669
-0.00258703
0.00281467
-0.00472538
0.00250978
-0.00400646
0.00283041
0.00104924
-0.0011452
-0.00109183
0.00147955
-0.00174285
-5.19044e-07
0.000226875
-0.00167709
-0.00327332
0.00300098
0.000509765
-0.000415546
-0.000783445
-0.00127401
0.00171344
0.000554564
-0.000234929
0.00071038
-0.00368694
0.00172962
0.000552521
0.00109573
-0.000783915
0.00299206
-0.00199031
-0.00148954
0.00196783
-0.00325579
0.00284041
0.00026723
-0.000262391
-8.27213e-05
0.00305494
-0.00293952
-0.00173871
0.00222529
0.00270085
-0.0016963
0.000390597
-3.63628e-05
-0.000967605
-0.000177484
0.000539552
-0.00348477
0.00282331
0.00018081
0.00161434
-0.00145794
-9.76433e-06
0.00362962
-0.00240724
-0.000239235
-0.00201378
0.0024557
0.000474408
-0.0015998
0.000315436
0.000218158
0.0011452
-0.00123571
0.000122459
-0.00278926
0.00276626
0.0011419
-0.00187052
0.000306898
-0.000218373
-0.00300983
7.03164e-05
-0.000483788
0.000935026
-0.000660924
0.000738998
0.000163474
0.000766123
0.00333387
-0.00290912
0.00256407
-0.00187611
-0.000178082
0.000223531
2.2129e-05
-0.00366347
0.00213971
-0.00228913
0.00262506
0.00242216
-0.00195056
0.000182518
0.000535712
0.00065386
0.000205539
0.000324036
0.000223908
0.00321402
-0.00247704
0.000203257
0.00146452
-0.0014432
0.000369594
-9.79963e-05
0.00101384
-0.000504072
0.000544509
0.00348925
-0.00268512
0.00022911
0.000262132
2.54107e-05
0.000418532
-0.000269848
-0.000148684
-0.000524628
0.000780005
0.000211512
0.000151111
-0.00147704
-0.00398262
0.00223978
2.02608e-05
0.000286624
-1.60087e-05
0.000646767
-0.000402399
0.00144233
-0.00146675
-0.00333617
0.00255273
-0.00115095
-0.00115221
-0.000655851
0.000919454
0.000250261
0.00022369
-0.000824011
0.00299388
-0.0022835
0.00303378
-0.00296347
-0.000176669
0.000234823
0.000580135
0.00123571
-0.00131428
0.00432024
-0.00181046
-0.00350069
0.00253308
0.00240204
-0.00184952
-0.000495768
0.00322685
-0.00290281
0.000166572
0.000528901
0.000579622
-0.000312392
0.000573765
0.000183604
-0.00317543
0.00295706
-0.000677379
-0.00325557
0.000989054
-0.00252507
0.00270588
0.00191299
-0.00288729
0.00264806
0.000164075
-0.00323407
0.00131697
0.0032672
-0.00268706
5.65449e-05
0.000516832
-0.000788569
0.000127645
-0.00326443
0.00278065
0.000768817
0.000343694
-0.000121029
-0.00168435
0.000226418
-0.000621983
0.00051458
-0.000296422
0.00298892
0.000237923
0.000525931
0.000271727
-9.73501e-05
-0.000141647
0.0030193
-0.0024904
0.000364385
9.99926e-05
0.00260041
-0.00194655
2.5456e-05
-0.00137746
0.000122139
0.00280256
-0.00206356
-0.00150445
0.000124153
0.000649846
-0.00211367
-0.000420274
0.00152604
-0.00140358
-0.000104838
-0.00333101
0.00173121
-0.000893695
-0.000174256
0.000130884
-0.00281311
0.00305103
0.00236953
-0.00182502
0.000332239
0.000553842
0.000519064
-0.00267817
0.00270358
-0.000307375
-0.00223649
0.000593817
0.0031022
-0.00273781
-0.00321307
0.00253569
-0.001397
0.00131428
4.52481e-05
-0.000231597
0.000215588
0.000208869
-0.000471259
0.000289087
-8.06602e-06
-0.00330217
0.00214995
-0.00332917
0.00217822
0.00351971
-0.00127993
0.00282427
-0.00230743
-0.000796089
0.000520013
0.00278792
-0.00179887
-0.00167709
-0.0011913
-0.000432424
0.000459426
-0.000250558
0.00170925
0.00011218
-0.000749437
-0.000965388
0.0011165
0.000393552
-0.000209948
-0.0011165
0.00127997
0.00250546
-0.00193169
-0.000234823
0.000256952
-0.000200072
-0.000334359
0.000236363
-0.00127997
0.00146249
-0.00266954
0.000973241
0.000504072
-0.000339996
0.000333866
-0.00293113
0.00243536
-0.000203257
0.000202738
-0.00146249
0.00166803
0.00288557
-0.00255333
-0.00166803
0.00189194
8.28394e-05
-0.000513659
5.39377e-05
0.000459721
-0.00189193
0.00212105
2.77089e-05
-0.000508177
0.000311199
0.000147757
0.00303381
1.72247e-05
-0.00212105
0.00233256
-0.0035246
0.00141093
0.000313995
-6.3734e-05
0.000441896
-0.00161161
-0.0030469
0.00307236
-0.000283072
-0.00318268
0.0028753
0.00236347
-0.00183754
0.000841159
-0.0015548
0.000713642
0.00240082
-0.00175097
0.000965389
-0.000837744
0.00301396
-0.00315561
-5.76408e-05
0.00263988
-0.00212082
0.00155245
-0.00132603
0.000841377
0.000209157
0.000255046
0.000147035
-0.00233256
0.00249913
-0.00147037
0.000449928
-0.00192696
0.000575795
-0.00274964
0.00262861
0.000332446
9.71291e-05
0.00270272
-0.00236885
0.000431775
0.000148866
-0.00304946
0.00225337
0.000290297
-0.000157492
-0.000132805
0.00284332
-0.00255424
0.00147543
-0.00145517
0.000149388
-0.00310576
0.00267334
-0.000513764
0.00226835
-0.00174833
0.000837745
-0.00070686
-0.00284669
0.00104782
-0.00303003
0.00175011
0.000706861
-0.000582708
0.00241973
-0.00197784
-0.00135257
-0.00134046
-1.30907e-05
-0.00170409
0.000326636
0.00302015
-0.000841928
-0.00249913
0.00259912
-0.000168715
-0.00293082
0.00131922
-0.000880084
0.000582709
-0.000460569
0.00242899
-0.00158761
-4.60581e-05
-8.32512e-05
0.000430809
-0.00143575
8.67524e-06
-0.00122158
-0.00287659
0.00137214
0.000678011
-0.000230461
0.000211657
-0.000411729
0.00182885
0.000374984
-0.000163327
-0.00114538
8.03484e-05
0.000298917
0.00286055
0.00255424
-0.00240648
-0.00288136
0.00213192
0.000339996
-0.000192962
0.00237538
-0.00132757
0.00252409
-0.00219165
0.000124426
-0.000256953
0.000248887
0.00142178
-0.00107809
0.00220967
-0.00163387
-0.00125417
-0.00133315
-0.000149597
-0.00153972
0.000213689
-0.00121308
0.000460569
-0.000348389
0.00227651
-0.00184473
0.000247997
-3.24082e-05
0.00214932
-0.00147131
-0.00247109
0.00103534
0.000155242
0.000787777
-0.000445994
0.000184263
-0.0014066
0.00148944
-0.00259912
0.00262683
0.000461337
-0.00115187
-0.00132609
0.00147496
-0.00264332
0.00142175
-0.000323036
0.000173439
-0.0029435
0.00242974
-0.000202738
0.000145097
0.00214611
-0.0017153
0.000515443
-0.00280596
0.00196403
0.000298671
0.00240648
-0.00225709
0.00204583
-0.00125806
0.00142746
-0.00121377
0.00034839
-0.000251261
-0.000893214
0.00144561
0.000574527
-0.000552589
-0.00275594
0.00247287
-0.00213606
0.000808492
-0.000270167
0.000412847
-9.68748e-05
-0.000513659
-0.00268657
0.00180649
0.00233541
-0.00203649
0.00203543
-0.0015741
0.00259549
-0.00276421
-0.00110072
0.000192962
-6.85355e-05
-0.00286055
0.00284746
-0.00229692
0.00114505
-0.00140763
0.00192308
-0.00284746
0.0027642
0.000251261
-0.000170912
0.000306176
-9.70196e-05
-8.6673e-05
-0.00259549
0.00236503
0.000301377
0.000101366
0.00186171
-0.00105322
0.0017886
-0.00121407
0.00027461
-0.00148769
-0.000875175
0.000143759
0.000320131
0.00266452
-0.000835669
-0.00262683
0.00258077
0.000603653
-0.000127327
-0.00255424
0.00225709
-0.00210185
6.83534e-05
0.00151914
0.000380964
0.000348982
-0.00124184
0.00221509
-0.0013469
0.000133135
-0.00240064
0.00150742
-0.00244155
0.00108897
-0.00199482
0.000894095
-0.00210282
0.000860977
-0.00107229
-0.000554655
0.000170913
-7.34396e-05
-9.74733e-05
0.000416738
-0.0016709
-0.00106941
0.000149637
0.000324772
-0.000145097
5.8424e-05
-0.00107095
-0.000849769
0.00161857
-0.00101492
-0.00139305