/*--------------------------------*- C++ -*----------------------------------*\
  =========                 |
  \\      /  F ield         | OpenFOAM: The Open Source CFD Toolbox
   \\    /   O peration     | Website:  https://openfoam.org
    \\  /    A nd           | Version:  8
     \\/     M anipulation  |
\*---------------------------------------------------------------------------*/
FoamFile
{
    version     2.0;
    format      ascii;
    class       volVectorField;
    location    "0.45";
    object      U;
}
// * * * * * * * * * * * * * * * * * * * * * * * * * * * * * * * * * * * * * //

dimensions      [0 1 -1 0 0 0 0];

internalField   nonuniform List<vector> 
1924
(
(-0.173918 0.114394 2.19073e-17)
(-0.126882 0.384249 2.22461e-17)
(0.264787 0.15396 3.47433e-18)
(0.249017 0.156181 2.25215e-18)
(-0.104805 0.3133 2.036e-17)
(0.455913 0.0995421 2.79579e-18)
(0.537525 0.117613 1.21371e-18)
(0.729361 0.0400411 4.22119e-19)
(0.729802 0.00907791 4.57591e-19)
(0.140798 0.280053 5.4574e-18)
(0.850425 -0.064931 1.87206e-19)
(0.826635 -0.137045 -3.98819e-19)
(0.629064 0.253348 8.07451e-19)
(0.942273 -0.231075 -1.42066e-18)
(0.60901 -0.737126 8.39193e-18)
(0.499295 -0.710133 1.10189e-17)
(0.597927 0.18194 1.09479e-18)
(0.89826 -0.321983 1.08847e-19)
(0.0165683 0.22684 2.34717e-17)
(0.961498 -0.406153 -3.28885e-19)
(0.414193 0.297041 2.59147e-18)
(0.346132 -0.580407 5.37063e-18)
(0.870535 0.0280179 -9.06357e-19)
(0.885725 -0.490373 -6.00752e-19)
(0.348351 -0.607483 5.97434e-18)
(0.4082 -0.466212 1.15829e-17)
(0.534815 -0.236359 1.15086e-17)
(-0.0422832 0.631522 9.66167e-18)
(0.0787991 0.000569011 1.65566e-17)
(0.386589 0.0251351 1.62761e-18)
(0.765938 0.0751144 4.2167e-19)
(0.335749 -0.604131 6.35645e-18)
(-0.150573 -0.110231 1.99476e-17)
(0.721604 0.178675 -2.0325e-19)
(0.0523615 0.524411 8.3301e-18)
(0.84857 -0.149809 5.25518e-19)
(0.350467 -0.561869 8.16424e-18)
(0.227283 0.120308 1.44742e-17)
(0.160644 0.287535 2.65444e-18)
(0.708921 0.113223 1.18588e-20)
(0.444602 -0.542453 1.13766e-17)
(0.575016 0.342426 1.54584e-18)
(0.372899 -0.525418 9.67804e-18)
(0.888435 0.170242 -3.45027e-18)
(0.598687 -0.628878 4.43723e-18)
(-0.106868 -0.296154 1.77299e-17)
(0.23084 0.305653 1.93213e-17)
(0.00925678 -0.164379 -1.19966e-18)
(0.561375 0.770017 1.04455e-18)
(0.248736 0.286087 3.31442e-18)
(0.120071 -0.318209 3.66629e-20)
(0.464592 0.18201 1.92398e-18)
(0.342075 -0.567782 4.49548e-18)
(-0.487622 -0.150899 1.58309e-18)
(0.00660707 -0.200293 1.56806e-17)
(0.020625 0.401823 5.67397e-18)
(-0.062816 0.177201 2.22461e-17)
(-0.030521 -0.351994 -4.09352e-18)
(-0.0412702 0.0897566 1.22984e-18)
(0.686847 0.5413 1.23782e-17)
(0.870285 -0.0239989 -1.28102e-18)
(0.530973 -0.576496 1.10545e-17)
(0.954069 -0.0188471 -2.87313e-18)
(0.375072 0.49052 -5.85607e-19)
(-0.333628 -0.0225172 1.37676e-18)
(-0.00410602 -0.0143922 -3.31747e-19)
(0.375126 0.971856 2.33858e-18)
(0.800849 -0.152542 6.94303e-19)
(0.0402136 -0.154834 1.48208e-17)
(0.683556 -0.154912 1.30643e-19)
(-0.0135939 -0.240924 3.62465e-18)
(0.329179 -0.372143 1.02628e-17)
(-0.0477983 0.380107 1.11135e-18)
(0.33307 -0.0918919 1.13309e-18)
(0.219647 -0.114976 1.51647e-18)
(0.0999312 -0.10846 1.30352e-17)
(0.165184 -0.0404171 -3.75373e-19)
(0.256856 -0.171144 8.84437e-19)
(0.135039 -0.323818 -2.77367e-19)
(0.80701 -0.279714 -1.30719e-18)
(0.401309 -0.408546 -1.6033e-19)
(0.689543 -0.0484975 1.15673e-17)
(0.176787 -0.310554 1.81315e-18)
(0.184226 0.0268741 3.41952e-18)
(-0.123387 -0.0242203 2.13321e-17)
(0.802168 -0.213461 1.10936e-18)
(-0.107708 0.295212 3.33456e-18)
(0.767609 -0.797933 7.74761e-18)
(0.316937 0.427995 1.5985e-18)
(-0.0243752 -0.253855 3.5853e-18)
(0.824107 0.975643 4.04496e-18)
(0.540238 -0.0220346 1.15935e-17)
(-0.00203556 -0.189008 1.60489e-17)
(0.0422021 -0.35439 1.45623e-17)
(0.0456708 -0.220647 3.4781e-18)
(-0.314279 0.0373952 8.0031e-19)
(0.206423 0.0394303 -8.49669e-20)
(0.466256 -0.401792 1.5424e-20)
(0.64407 0.518213 8.41437e-18)
(0.232903 0.035741 5.60051e-18)
(0.38429 -0.0424742 4.33864e-18)
(0.147422 -0.0774136 3.08585e-18)
(0.762896 0.535875 6.65378e-18)
(0.448325 0.0842177 1.02757e-17)
(0.151069 -0.346297 1.36805e-17)
(0.288389 -0.244075 1.25958e-18)
(0.461405 -0.0841077 5.51788e-18)
(0.187653 -0.273848 1.31027e-17)
(0.727298 0.0603674 1.37861e-17)
(-0.0368266 -0.258046 1.60235e-17)
(0.340141 0.0566611 1.50219e-20)
(0.216072 -0.128397 1.04864e-17)
(0.126229 0.407763 1.71023e-17)
(0.155672 -0.307878 4.93211e-19)
(0.210827 -0.247827 -9.0583e-21)
(0.0424932 -0.0595212 4.82215e-18)
(0.38504 -0.0289781 3.33113e-18)
(0.355118 -0.619216 1.10916e-17)
(0.784274 0.279696 4.21535e-19)
(0.233282 -0.152328 -2.33436e-19)
(0.0200378 0.00654099 2.33518e-17)
(0.740579 0.0494666 -1.21031e-18)
(0.490398 0.456548 1.47921e-18)
(-0.0501414 -0.179866 5.11663e-18)
(0.166575 0.408942 5.72172e-18)
(0.153176 -0.333729 1.1821e-17)
(0.152082 -0.0524028 1.09524e-17)
(0.245622 -0.203206 7.4691e-19)
(0.33251 -0.151435 1.04378e-17)
(0.635617 -0.149631 -7.2574e-19)
(0.351115 -0.0130492 4.91729e-21)
(0.466257 -0.0999853 4.52648e-18)
(0.0646669 -0.260958 1.49233e-17)
(0.251652 -0.251846 8.7854e-19)
(0.275385 -0.0212491 2.54903e-18)
(0.302167 -0.417833 1.27906e-17)
(0.307159 0.0295677 9.57468e-18)
(0.371825 -0.0303489 8.09286e-18)
(0.919049 -0.575807 7.69149e-20)
(0.147061 0.388165 1.26764e-17)
(-0.105624 0.173907 1.16353e-18)
(0.478538 0.0584162 8.37181e-18)
(0.224622 -0.620613 9.26302e-18)
(-0.0510361 -0.296748 1.38428e-17)
(0.499589 -0.0904935 2.43103e-18)
(0.576379 -0.189656 -2.16158e-18)
(0.200445 -0.274106 1.21418e-17)
(0.0753348 -0.288374 4.70318e-18)
(0.520808 0.0445366 1.44693e-17)
(0.756988 0.438459 3.29656e-19)
(0.0652062 -0.353318 1.06327e-18)
(0.615311 0.00404121 6.19253e-20)
(0.131758 -0.253895 6.37048e-18)
(0.523993 -0.144281 4.59823e-18)
(0.576279 -0.0416665 2.34571e-18)
(0.197242 -0.326105 7.03489e-18)
(0.711564 0.1386 -3.44641e-18)
(0.319066 0.0834497 7.0308e-18)
(0.462541 -0.00702426 1.10642e-19)
(-0.133583 -0.322476 1.35575e-18)
(0.321922 -0.220887 2.89195e-19)
(0.0576007 -0.254151 1.47252e-17)
(0.551933 -0.144307 3.49976e-18)
(0.828703 0.00882426 1.18794e-19)
(-0.108134 -0.278072 -2.88408e-19)
(0.181987 -0.158887 1.09821e-17)
(0.434521 -0.348484 5.95028e-18)
(0.681117 0.158502 -2.66817e-18)
(0.267104 -0.158646 -7.58872e-20)
(0.627583 0.00939598 7.49976e-18)
(-0.164187 -0.179097 1.92172e-17)
(0.77391 -0.0856594 4.311e-18)
(0.272084 -0.268419 5.80251e-19)
(0.441768 0.107556 1.39892e-17)
(-0.0452126 0.259247 2.5084e-18)
(0.146 -0.255838 5.14117e-18)
(0.24765 -0.0792429 -1.94306e-19)
(-0.0503944 -0.0288282 2.00708e-18)
(0.920577 -0.213464 1.77609e-18)
(0.746872 -0.125597 2.63161e-18)
(0.322437 -0.2238 9.76501e-18)
(0.409267 -0.67171 7.46041e-18)
(0.291311 -0.224483 5.29708e-19)
(0.35813 -0.08476 1.00419e-17)
(0.579405 0.850299 -4.90637e-19)
(0.150208 0.586281 1.3699e-17)
(0.136898 -0.252097 6.74972e-18)
(0.47882 -0.223209 1.079e-17)
(0.313748 -0.117647 5.58367e-21)
(0.359056 -0.249652 5.65603e-19)
(0.223476 -0.206909 1.11849e-17)
(0.853758 -0.0447388 2.26589e-18)
(0.461838 -0.092625 1.99777e-19)
(0.84544 -0.104847 3.02054e-18)
(0.650305 -0.032028 7.54037e-18)
(0.607161 -0.00689535 5.60189e-20)
(0.727899 -0.11566 1.12775e-17)
(0.143592 -0.244003 5.69346e-18)
(0.184034 -0.220651 9.03953e-18)
(0.146674 -0.317077 4.36651e-18)
(-0.0576306 -0.211907 1.97751e-17)
(-0.0040216 0.659847 1.64507e-17)
(0.57395 -0.0535915 7.76124e-18)
(0.962268 -0.101945 1.46628e-18)
(-0.15217 -0.0930213 1.91629e-17)
(0.335589 -0.236413 1.00872e-17)
(0.994022 -0.0834 2.09457e-18)
(0.112175 -0.285367 4.24957e-18)
(0.0784421 -0.275576 4.73424e-18)
(0.171839 0.014822 1.20397e-17)
(0.872651 -0.0131358 2.71002e-19)
(0.543782 -0.0240038 4.97321e-18)
(0.959825 -0.740883 -1.37645e-18)
(0.614485 0.0479297 9.07339e-18)
(0.50466 -0.122137 1.1634e-17)
(0.279323 -0.224506 4.21738e-19)
(0.385742 -0.180263 1.36044e-17)
(0.188276 -0.161248 9.55432e-18)
(1.04554 -0.102234 1.342e-18)
(0.212551 -0.229143 8.73653e-19)
(0.172713 -0.163875 8.90346e-18)
(0.104718 -0.379846 3.96914e-18)
(0.696569 -0.051112 8.36602e-18)
(0.958786 -0.781749 3.64552e-19)
(0.985542 -0.109136 7.5341e-19)
(0.666118 -0.0490957 1.19803e-17)
(0.538566 -0.125774 7.28314e-19)
(0.301402 -0.312536 3.69822e-19)
(0.819973 0.12955 8.57621e-18)
(0.161328 -0.330299 4.92528e-18)
(-0.181504 -0.187356 1.54951e-17)
(0.78263 0.99294 2.25049e-18)
(0.23757 -0.278534 9.47618e-18)
(0.161964 0.253368 2.88929e-18)
(0.817586 0.138445 1.07621e-17)
(-0.0516993 -0.460144 7.52816e-19)
(0.825611 -0.799413 -1.60196e-18)
(1.18511 -0.110035 7.26641e-19)
(0.669181 -0.0482032 5.67442e-18)
(0.630161 -0.0424174 7.3228e-21)
(0.138588 -0.71445 9.00234e-18)
(0.292075 -0.356277 8.34007e-18)
(0.794863 -0.729608 -9.9532e-19)
(0.111546 -0.272398 3.65863e-18)
(0.336029 -0.376426 1.98381e-18)
(0.071161 -0.257849 3.93762e-18)
(1.08684 -0.186201 1.23016e-18)
(0.0896618 0.203965 1.21049e-18)
(0.287123 -0.204806 6.18189e-19)
(0.288146 -0.306014 6.01739e-20)
(0.064833 0.144092 4.7347e-18)
(0.824135 -0.0352297 1.86093e-19)
(0.925447 0.134466 1.01529e-17)
(0.598104 -0.0350636 4.05716e-18)
(0.334309 -0.151606 1.38919e-19)
(0.842238 -0.867814 1.04543e-18)
(0.364325 -0.410624 1.24289e-17)
(0.291674 -0.464748 5.73339e-18)
(0.206686 -0.146012 9.81134e-18)
(1.20732 -0.162498 4.44771e-19)
(0.285276 -0.143884 8.43772e-18)
(0.736794 -0.00790886 5.61308e-18)
(0.521836 0.0199768 1.28449e-17)
(0.288648 -0.218381 1.53126e-19)
(0.340782 -0.614054 6.85762e-18)
(0.1454 -0.0946028 2.36872e-18)
(0.760756 0.492478 -2.38893e-19)
(0.234746 -0.280152 3.78915e-19)
(0.0253697 -0.283732 1.51266e-17)
(0.180931 -0.219974 1.90734e-17)
(0.208657 -0.338891 4.04357e-18)
(-0.00252202 -0.254542 5.92699e-19)
(-0.121788 -0.245407 1.858e-17)
(0.360035 -0.402916 8.75478e-18)
(0.558319 1.0655 3.3652e-18)
(0.376259 -0.46817 6.07407e-19)
(1.08054 -0.239796 -2.15726e-19)
(0.773931 0.0668185 1.59648e-17)
(0.568905 -0.111363 4.49244e-18)
(0.205091 -0.372711 7.15815e-18)
(0.0310812 -0.118171 2.26812e-17)
(0.597076 -0.0526948 -3.843e-19)
(0.931554 1.17002 8.92557e-19)
(1.14512 0.117908 5.52154e-18)
(0.0303463 0.0422762 2.40307e-17)
(0.351458 -0.186679 7.04449e-19)
(0.525769 -0.205909 -3.70495e-20)
(0.782573 -0.107114 -8.11643e-19)
(1.32995 -0.215177 -1.36948e-19)
(0.321847 -0.381632 8.16754e-18)
(0.831921 -0.0254037 4.54135e-18)
(0.0438966 0.0851028 4.2366e-18)
(0.802 0.327201 1.09334e-17)
(0.735056 -0.901146 -6.65818e-19)
(0.104566 0.0400418 5.37114e-18)
(-0.0817965 -0.259511 4.54936e-19)
(0.804777 -0.836344 2.34496e-18)
(0.175323 -0.221367 2.67951e-18)
(0.224164 -0.277828 6.24311e-19)
(0.749103 -0.944067 -6.22942e-19)
(0.499778 -0.125827 -6.89917e-19)
(0.653281 -0.104376 4.8105e-18)
(0.660913 -0.780101 -4.14488e-19)
(0.290972 -0.0739462 1.20347e-17)
(1.18178 -0.33172 -3.4971e-19)
(0.511639 -0.325018 1.13103e-17)
(0.833939 0.456899 -8.38771e-19)
(0.632294 -0.706784 -2.66404e-19)
(0.271595 -0.438411 7.78149e-18)
(0.379871 -0.3929 1.80825e-18)
(0.111289 -0.258503 3.89934e-18)
(0.780411 0.364711 1.67004e-19)
(1.1556 0.191921 5.38136e-18)
(0.38924 -0.521017 4.91316e-18)
(0.398727 -0.152272 -2.20083e-20)
(0.844051 0.390656 -5.11435e-19)
(0.365133 -0.160854 9.24442e-18)
(1.32247 -0.303388 -3.04907e-20)
(0.958172 0.0454899 4.07388e-18)
(0.524234 -0.164471 9.50644e-18)
(0.0395845 -0.0141751 3.10922e-18)
(0.234232 -0.376823 4.71828e-18)
(0.756705 -0.111557 3.87154e-18)
(-0.0968606 -0.250621 6.24722e-19)
(0.634485 -0.227867 1.13203e-17)
(0.305976 -0.385336 7.91218e-19)
(0.397467 -0.264731 1.03102e-17)
(0.352414 -0.411833 7.84789e-18)
(0.194159 0.219309 1.07548e-18)
(0.588069 -0.269381 -3.56353e-19)
(0.213435 -0.351389 6.65199e-18)
(0.184073 1.10153 -5.06989e-19)
(0.471165 -0.391556 3.48029e-18)
(1.11894 -0.420746 -3.18717e-19)
(0.156373 -0.215373 1.28229e-18)
(0.870051 0.235668 1.09889e-17)
(0.59419 0.769357 9.88355e-18)
(1.11007 0.0473602 2.674e-18)
(1.33647 0.251146 2.19081e-18)
(0.883079 -0.0645297 2.73104e-18)
(0.28397 -0.372423 4.00294e-19)
(-0.00668048 -0.268611 4.89196e-19)
(0.360743 -0.582975 7.08937e-18)
(0.175748 -0.235886 2.66872e-18)
(0.713022 -0.891718 1.88206e-18)
(0.0862223 -0.442961 1.03351e-17)
(-0.180646 -0.286351 1.81816e-17)
(-0.212957 0.504533 4.39465e-18)
(0.657512 0.302028 -3.34872e-20)
(0.53726 -0.338177 1.09952e-17)
(0.368188 -0.602083 8.76607e-18)
(0.519459 -0.601516 5.64373e-19)
(-0.0701459 -0.457839 -3.20928e-18)
(0.612251 -0.945977 -5.19941e-19)
(0.214395 -0.121671 3.20333e-18)
(0.244658 -0.34872 2.96095e-19)
(0.660779 0.481923 -5.14189e-19)
(1.39281 -0.394981 8.10943e-19)
(0.285796 -0.510742 6.13746e-18)
(-0.259637 0.0118289 5.54371e-19)
(1.07852 0.371039 7.62552e-18)
(0.655682 -1.02874 -2.74465e-19)
(0.586025 -0.866049 -4.21879e-19)
(0.296318 1.11883 4.39596e-18)
(0.356709 -0.615909 7.87559e-18)
(1.02368 -0.0508198 2.15903e-18)
(0.400119 -0.556181 7.64016e-18)
(0.30534 -0.37617 3.90882e-18)
(1.32394 0.372643 7.63699e-20)
(1.22573 0.129184 1.81498e-18)
(0.515323 -0.726639 -2.26819e-19)
(0.603209 -0.229842 1.0103e-17)
(0.322954 -0.596451 5.78794e-18)
(0.0711159 -0.989668 5.37884e-18)
(0.484408 -0.292095 1.20615e-17)
(-0.128916 -0.0534369 9.63452e-18)
(0.638718 -1.03688 4.23335e-19)
(0.653816 -0.780454 4.38158e-18)
(0.332896 -0.607122 6.87572e-18)
(-0.288097 0.315636 5.13508e-18)
(-0.215857 -0.0534312 7.87169e-18)
(0.223246 -0.334191 8.23297e-19)
(0.422874 -0.296265 1.02224e-17)
(0.852332 -0.0775531 1.00965e-17)
(0.224452 -0.393735 5.39536e-18)
(0.486259 -0.663252 -4.72253e-19)
(0.114466 -0.191462 2.0233e-18)
(0.143974 1.17704 2.50605e-18)
(0.427493 -0.370989 1.13104e-17)
(1.15154 -0.0107959 1.50997e-18)
(0.0552836 -0.460733 5.01265e-19)
(0.547018 -0.0670548 3.06194e-18)
(0.563865 -0.222709 1.16115e-17)
(-0.0638496 1.0766 2.09114e-18)
(1.3691 0.0853857 5.72507e-19)
(-0.249226 -0.189573 1.52348e-17)
(0.360007 -0.567283 1.06413e-17)
(0.355548 -0.627584 6.49576e-18)
(0.571424 -0.342489 -1.50556e-19)
(0.191993 -0.464888 1.43148e-17)
(0.322592 -0.271173 -1.39143e-19)
(0.173061 -0.310007 8.59328e-19)
(0.285984 -0.153691 2.0658e-18)
(0.0406171 -0.282906 1.46352e-17)
(0.475235 0.0751747 -1.31096e-18)
(0.450294 0.466389 1.21273e-17)
(0.414455 -0.569252 5.14249e-19)
(-0.247033 0.980838 2.59504e-18)
(0.30397 -0.554764 5.09795e-18)
(0.360663 -0.605385 8.91009e-18)
(1.07256 0.310929 8.21758e-18)
(0.665821 0.248817 1.262e-18)
(1.30813 -0.521192 1.81093e-18)
(1.24404 -0.0448563 7.75611e-19)
(1.5156 0.410844 6.50745e-19)
(0.0465605 -0.564187 5.25537e-18)
(0.31613 -0.470301 7.40576e-19)
(0.524814 -1.10177 -1.14399e-19)
(0.836226 -0.270125 2.12131e-18)
(0.340565 0.16688 3.6593e-19)
(0.518404 -1.02048 -3.47991e-19)
(0.33243 -0.429734 3.77675e-18)
(0.388062 -0.526386 8.14852e-19)
(0.25054 -0.123374 3.35573e-18)
(0.355277 -0.616867 7.94962e-18)
(0.468499 -0.872503 -2.55683e-19)
(0.39843 -0.202201 -9.66704e-20)
(-0.0879171 -0.109707 4.90255e-18)
(0.507546 -0.295653 7.0587e-18)
(0.560723 -0.197585 1.27273e-17)
(0.183175 0.58211 1.05714e-17)
(0.288363 -0.449766 6.75752e-20)
(0.625935 -0.0718931 1.32025e-17)
(0.689201 0.558554 8.92554e-19)
(1.43922 0.210797 1.20599e-18)
(0.499092 -0.281086 1.26621e-17)
(0.447431 -0.800464 -1.382e-19)
(0.863423 0.57728 -1.93912e-18)
(1.38149 -0.0126629 2.20112e-19)
(0.345106 -0.654399 7.89826e-18)
(0.24051 -0.413791 5.23732e-18)
(0.414008 -0.507327 1.1221e-17)
(0.863169 -0.0988967 8.9526e-18)
(-0.0459163 -0.294523 3.53911e-19)
(-0.515311 0.46161 4.73344e-18)
(0.0500141 -0.13632 6.14763e-19)
(1.14058 0.699923 3.78592e-18)
(0.137828 -0.286458 9.6967e-19)
(0.598523 -0.24295 1.18843e-17)
(0.101847 0.938205 6.39513e-18)
(0.522452 -0.81469 4.28591e-18)
(0.590491 -0.0230762 4.09657e-18)
(1.03244 0.0623529 7.68967e-18)
(0.624077 -0.416415 -1.09824e-20)
(0.343738 -0.634115 1.07367e-17)
(0.681838 -0.149614 1.24302e-17)
(0.392188 -0.687076 -3.4085e-20)
(0.504056 -1.12017 1.10484e-18)
(0.678754 0.598514 1.46415e-20)
(-0.238008 -0.132167 1.39023e-17)
(0.236927 -0.420306 -5.09883e-20)
(0.423011 -0.549915 6.22094e-18)
(0.907846 0.359828 -3.4173e-18)
(0.70684 0.529488 3.82403e-19)
(0.291384 -0.186077 2.09864e-18)
(-0.0740597 0.977894 5.58875e-18)
(-0.34294 0.840758 4.68657e-18)
(1.52279 0.595164 7.71212e-19)
(1.44637 -0.0868116 -6.26506e-20)
(0.346022 -0.368681 3.48865e-19)
(0.365094 -0.623742 8.26642e-18)
(0.69467 0.544249 5.32688e-19)
(0.00756549 -0.225186 2.36659e-18)
(0.371346 -0.639275 -5.29749e-20)
(0.418031 -0.448046 3.91036e-18)
(0.216871 -0.410057 1.07674e-19)
(0.247903 -0.111271 4.95401e-18)
(1.25443 -0.640846 6.33181e-18)
(-0.517008 0.385016 6.6872e-18)
(-0.0603613 -0.364606 1.57187e-17)
(0.965868 0.657319 3.6437e-18)
(1.56793 0.117657 7.06046e-19)
(0.454543 0.177523 1.43781e-17)
(-0.470335 0.77113 4.72903e-18)
(0.526033 -0.322961 5.41698e-18)
(0.368234 -0.618634 8.06975e-18)
(0.538952 -0.417766 1.18715e-17)
(-0.117457 -1.04608 6.33779e-18)
(0.724551 -0.220267 1.46575e-17)
(0.451578 -0.233347 -4.61591e-20)
(0.907026 0.480847 -1.8267e-18)
(0.701071 -0.337397 1.38069e-17)
(0.718027 0.685789 9.10819e-19)
(0.45076 0.143387 4.19248e-19)
(0.388917 -1.01202 -2.31855e-19)
(0.319872 -0.564587 1.91586e-19)
(-0.353485 0.136267 1.16853e-17)
(0.350788 0.390766 1.41742e-17)
(0.47212 -0.521311 1.19129e-17)
(-0.0852137 -0.215142 1.08527e-18)
(0.383093 -0.932041 -2.4871e-19)
(0.420543 -1.06614 2.60941e-18)
(0.288388 -0.463269 4.29248e-18)
(0.320769 -0.67838 8.19602e-18)
(0.40594 0.00402011 2.73211e-18)
(-0.101591 -0.446013 2.95455e-18)
(0.394236 -1.16627 2.79923e-19)
(0.327355 -0.671316 1.10508e-17)
(0.737607 0.403009 2.97175e-18)
(0.349089 -0.801815 -7.24663e-20)
(0.171736 -0.388147 9.84024e-19)
(0.296649 -0.532793 5.35929e-19)
(0.236131 0.36051 1.40364e-17)
(0.980769 0.127917 7.77083e-18)
(0.0605059 0.599713 1.05524e-17)
(-0.198815 0.593375 1.07008e-17)
(0.36931 -0.634976 8.10043e-18)
(0.690767 -0.167126 1.13943e-17)
(1.54709 -0.0637105 7.6187e-19)
(-0.18368 -0.233845 1.61177e-17)
(0.610992 0.626569 1.19621e-18)
(0.369366 -1.2345 7.3673e-19)
(0.239377 -0.493275 -3.00147e-19)
(0.334018 -0.746244 6.29874e-21)
(1.14093 0.322518 3.47343e-18)
(0.819424 -0.0533 1.14967e-17)
(0.0645659 -0.300957 2.45663e-18)
(0.768719 -0.0576997 1.92146e-18)
(0.343095 -0.636766 8.57404e-18)
(1.55602 0.549549 2.55801e-18)
(0.623953 0.518238 6.82192e-19)
(1.08945 -0.731364 6.06497e-18)
(0.782521 0.665299 3.18337e-19)
(0.86611 -0.154946 6.78717e-19)
(0.427929 -0.134435 1.42611e-18)
(-0.369274 0.593916 8.90191e-18)
(1.61098 0.254039 1.40428e-18)
(0.427437 -0.506096 4.02591e-18)
(0.886307 0.246158 -3.38702e-18)
(0.370924 -0.6072 8.15246e-18)
(0.769232 0.183825 3.31787e-18)
(-0.121151 -0.201015 -1.43325e-18)
(0.583841 -0.237347 -1.03972e-18)
(0.147607 -0.376736 1.57485e-18)
(0.294923 -0.660074 -3.7594e-20)
(0.752716 -0.450805 1.11596e-17)
(-0.101704 -0.195078 3.50773e-18)
(0.999897 0.396863 -5.92545e-18)
(-0.580729 0.44695 8.71751e-18)
(0.583665 -0.480285 -1.9545e-19)
(0.789946 -0.599602 1.08016e-17)
(0.399014 0.148394 1.5276e-17)
(-0.0094379 -0.538771 1.31936e-17)
(0.683099 0.746301 2.46658e-18)
(0.534323 -0.499977 1.22508e-17)
(0.911719 -0.115516 1.15248e-18)
(0.894169 -0.177202 2.15294e-18)
(-0.00931149 -0.283804 6.41336e-19)
(-0.0255486 -0.241454 5.19888e-19)
(0.0276982 -0.0444251 5.13118e-18)
(0.355636 -0.613829 8.20966e-18)
(0.587567 0.585357 1.09455e-18)
(0.0814964 -0.172378 1.38023e-17)
(0.387204 0.197983 1.53777e-17)
(0.311542 -0.511633 4.64066e-18)
(0.748801 -0.328469 -5.8368e-19)
(0.217183 -0.478844 -2.65573e-19)
(0.525085 0.0547776 2.6471e-19)
(-0.0605945 -0.231899 1.93199e-18)
(0.817462 0.519183 3.50503e-18)
(0.277369 -0.624748 -9.55042e-20)
(0.492285 -0.437347 1.19592e-17)
(0.292157 -0.646665 1.12504e-17)
(0.248615 0.234348 1.61434e-17)
(0.0858775 -0.37058 1.36711e-18)
(-0.0866742 0.262685 1.42952e-17)
(0.987323 -0.169161 -1.08875e-18)
(0.406863 -0.0408775 2.01363e-18)
(0.278632 -0.909799 -2.19369e-19)
(0.849083 0.0735894 2.62481e-19)
(0.576761 -0.273348 8.11184e-18)
(-0.389772 0.155726 1.67615e-17)
(1.51825 -0.201801 1.40391e-18)
(0.173066 0.212629 1.58541e-17)
(-0.207177 -0.151383 7.33098e-19)
(0.581708 -0.14876 -1.51467e-19)
(0.275203 -1.0542 -9.69065e-20)
(0.551153 0.147171 -5.26869e-19)
(0.23603 -0.570814 -1.46454e-21)
(-0.0466749 -0.24554 1.74492e-19)
(0.39144 -0.606168 7.98237e-18)
(0.615788 0.697273 2.03197e-18)
(-0.0466301 0.000969883 1.90516e-17)
(-0.129791 -0.226016 5.04516e-19)
(0.173059 -0.27497 1.10424e-19)
(0.27602 -0.847874 -1.30131e-19)
(-0.24267 0.281421 1.35909e-17)
(0.348623 -0.234962 1.73707e-19)
(-0.446974 0.517 1.04045e-17)
(0.564328 0.448688 7.25689e-19)
(-0.240159 -0.0152119 2.997e-19)
(0.26081 -1.137 1.15663e-19)
(1.47266 0.764936 7.88126e-19)
(0.0149086 -0.139057 -8.60681e-19)
(0.799104 0.836463 2.58299e-18)
(0.919536 -0.77171 8.7561e-18)
(0.821688 -0.138846 1.14254e-17)
(0.17157 -0.457421 5.30726e-19)
(0.678798 -0.286228 5.79837e-19)
(0.44951 0.133942 -1.92141e-19)
(0.399123 -0.604763 8.00856e-18)
(0.224925 -1.13293 3.01211e-18)
(0.960338 -0.070325 -2.26537e-18)
(0.434893 -0.282205 2.81051e-19)
(0.785135 0.135103 6.20066e-18)
(-0.545592 0.478458 1.16476e-17)
(1.0374 0.463929 5.02352e-18)
(0.438991 -0.187959 1.43019e-18)
(-0.183248 -0.116021 5.41206e-19)
(-0.0647483 -0.189743 -2.15516e-19)
(0.256288 -0.74946 2.44994e-21)
(0.21708 -0.549375 -1.02646e-20)
(0.611529 0.013167 3.08972e-19)
(0.329385 -0.655254 8.24744e-18)
(1.55983 0.0549348 4.62124e-18)
(0.029732 -0.310253 3.40133e-18)
(0.853144 -0.194417 -6.94356e-19)
(-0.47579 0.23799 1.67935e-17)
(0.895418 0.0416129 9.20615e-18)
(0.921756 0.0263409 -8.86897e-19)
(-0.288118 -0.239391 1.59604e-17)
(0.810446 -0.569532 1.00073e-17)
(0.342839 -0.276839 4.52879e-19)
(0.623568 0.33913 5.36554e-20)
(0.735255 0.817167 2.44366e-18)
(-0.212882 -0.06947 4.11016e-19)
(0.87307 -0.455986 9.81962e-18)
(-0.0249461 -0.281792 8.53783e-19)
(0.686191 -0.689759 8.49522e-18)
(0.24564 -0.708622 -1.71489e-20)
(0.330714 0.115967 1.47995e-17)
(0.285878 0.167468 1.52394e-17)
(0.903968 0.867857 5.05853e-18)
(0.307724 -0.792329 8.69978e-18)
(-0.336698 -0.456801 1.4182e-18)
(0.197114 -1.27638 9.87976e-19)
(0.356668 -0.496848 8.21945e-18)
(-0.185644 -1.28042 2.84497e-18)
(0.319214 -0.742905 6.87575e-18)
(0.34664 -0.527221 4.28068e-18)
(0.509649 0.592719 1.08203e-18)
(0.232413 0.169941 1.54066e-17)
(0.212264 0.252775 8.99909e-18)
(1.2779 0.686149 2.87413e-18)
(0.857738 -0.112883 -4.02328e-18)
(0.0657728 0.146963 1.56782e-17)
(0.474946 0.462536 7.78555e-19)
(0.150389 -0.449324 -9.12814e-20)
(0.336124 -0.67448 8.07116e-18)
(0.940869 0.163006 -9.42152e-19)
(0.845976 -0.186354 2.43038e-18)
(0.397907 -0.24729 -1.4178e-18)
(0.0626358 -0.362948 1.04611e-18)
(0.216879 -0.646041 -1.8479e-19)
(-0.0164448 0.132686 1.53542e-17)
(1.15786 -0.247762 7.01381e-18)
(0.412597 -0.569668 8.20387e-18)
(-0.413293 -0.0679518 1.6321e-17)
(0.564703 0.702199 3.09817e-18)
(0.859108 0.927625 5.67871e-18)
(1.07726 0.740205 6.63616e-18)
(0.173868 -0.51962 1.42843e-19)
(0.913997 0.435201 -1.81533e-18)
(0.483479 -0.328374 6.48659e-20)
(0.131326 -1.30373 1.59644e-18)
(0.202938 -0.6204 -1.54145e-19)
(1.45591 -0.239512 4.35712e-18)
(-0.19604 -0.586288 1.21319e-17)
(0.0402316 -0.274577 -3.09325e-19)
(0.872579 0.0223544 -3.74164e-18)
(0.184879 -0.93763 -2.41458e-19)
(0.171832 -1.00243 -2.69366e-19)
(-0.409258 0.440528 1.33745e-17)
(-0.278411 0.335805 1.37789e-17)
(0.409527 -0.561202 8.15494e-18)
(1.50428 0.22171 8.61585e-18)
(-0.19368 0.190049 1.45695e-17)
(0.0647035 -0.165566 6.74826e-20)
(0.196401 -0.830116 -7.80034e-20)
(0.520902 -0.245753 -2.17385e-18)
(0.034396 -0.0939968 -2.35778e-18)
(1.04825 0.654122 5.33258e-18)
(0.621783 -0.0831836 5.39147e-19)
(0.828324 -0.459362 7.66059e-18)
(0.458923 0.523556 7.36924e-19)
(0.119031 -1.15138 1.90792e-19)
(0.888904 0.109578 -3.73883e-18)
(0.103702 -0.444519 1.49213e-18)
(1.00978 1.0194 6.41797e-18)
(0.657944 0.220299 7.90545e-18)
(0.171081 -0.581932 -2.28893e-20)
(0.526297 0.27834 7.04836e-19)
(0.698538 -0.465496 5.34167e-18)
(0.558644 0.0239459 1.33617e-18)
(-0.0932993 -0.206083 -2.05086e-19)
(0.472709 -0.57629 5.5289e-18)
(0.240263 0.109925 1.45657e-17)
(0.650943 -0.69083 7.54156e-18)
(0.195805 -0.785517 -2.49608e-20)
(0.68744 0.843372 1.21469e-18)
(0.504826 0.646325 1.60501e-18)
(0.169458 -0.288762 -9.97599e-19)
(0.194525 0.256818 1.47825e-17)
(0.0849512 -0.17171 -3.15981e-19)
(0.410797 -0.577801 8.36482e-18)
(0.665967 0.157526 9.80456e-18)
(0.0900007 0.218818 1.44326e-17)
(0.427743 0.411371 9.07295e-19)
(0.0823947 -1.22813 4.67032e-19)
(0.0674592 -0.0249211 2.37508e-17)
(0.0729933 -0.439149 2.07181e-18)
(-0.518833 0.219025 1.59203e-17)
(0.155094 -0.510365 5.13995e-19)
(0.710198 -0.122191 -2.67834e-18)
(-0.302845 -0.461059 1.35034e-17)
(-0.0329583 0.0380041 4.114e-18)
(-0.0882851 0.267117 3.65887e-18)
(-0.118213 -0.11556 3.218e-19)
(0.585118 -0.193736 1.02124e-18)
(0.184739 -0.714987 -8.7052e-20)
(0.0280048 0.18812 1.452e-17)
(0.843394 0.267286 -1.00746e-18)
(0.0032462 -0.176629 1.17607e-18)
(0.994456 0.920336 7.16431e-18)
(-0.335972 0.347685 1.41136e-17)
(0.450742 -0.519452 8.41756e-18)
(-0.211839 0.202816 1.49758e-17)
(0.0268426 -0.77052 2.7165e-18)
(-0.502317 0.345788 1.39764e-17)
(0.472884 0.325017 7.62394e-19)
(-0.0311072 -0.229953 -4.17192e-19)
(-0.132398 0.0478591 1.47498e-17)
(0.155461 -0.568117 4.06637e-19)
(-0.155058 0.0705555 2.23319e-18)
(0.701589 -0.14727 -2.53049e-20)
(-0.0436609 -0.394872 -1.02101e-18)
(0.809215 1.00591 4.31473e-18)
(0.704342 -0.048896 -2.24867e-18)
(0.592912 0.770313 2.54381e-18)
(0.176775 -0.685467 -2.07886e-19)
(0.432589 -0.368398 8.26167e-18)
(-0.654896 -0.266765 1.63963e-18)
(1.28553 -0.452743 7.8531e-18)
(0.00606001 -0.162808 9.80111e-19)
(0.000197729 -0.165922 1.03214e-18)
(1.25313 0.816822 1.97081e-18)
(-0.197893 -0.404132 3.25867e-18)
(-0.085568 -0.147443 2.71929e-19)
(0.305546 -0.213801 2.16744e-19)
(-0.544704 0.22812 1.47719e-17)
(-0.0287303 -0.370573 2.05328e-18)
(-0.237366 0.0189781 1.39276e-17)
(-0.411695 -1.25871 2.56506e-18)
(0.155476 -0.640255 -1.97222e-19)
(0.605974 0.40085 7.40353e-18)
(0.747893 0.0979912 -2.36341e-18)
(0.481384 -0.472314 8.06975e-18)
(1.00182 1.22588 5.40357e-18)
(0.367946 -0.250621 -2.36803e-18)
(0.500143 -0.387769 5.63537e-18)
(-0.518883 -0.173125 1.40139e-17)
(0.662005 -0.361632 5.94417e-18)
(0.00341713 -0.245638 2.68304e-19)
(-0.0116827 0.256952 1.25594e-17)
(0.563026 -0.0335935 1.19878e-18)
(0.109871 -0.894716 -1.8573e-19)
(0.712545 0.933067 1.99384e-18)
(0.311403 -0.666979 8.29867e-18)
(0.442078 -0.21008 -2.046e-18)
(-0.0324885 -0.177201 6.06732e-18)
(0.435516 0.184132 1.4557e-19)
(0.114222 -0.501072 5.94075e-19)
(1.0542 -0.11451 9.16263e-18)
(0.214866 -0.224435 1.29164e-17)
(0.992026 -0.625367 -6.35292e-19)
(0.0274543 -0.402872 2.55918e-18)
(-0.284689 -0.864624 8.81278e-18)
(0.0959017 -0.478076 3.47727e-18)
(0.0315667 -1.06699 -2.61577e-19)
(-0.0137546 -0.218839 -1.83132e-18)
(0.723328 0.157457 -9.42572e-19)
(0.366196 0.449303 4.88717e-19)
(0.0599625 -1.00347 -2.94461e-19)
(-0.0560603 0.391855 1.32181e-17)
(1.01916 1.39368 6.97339e-18)
(0.144936 -0.62257 -2.50552e-19)
(0.121986 -0.849751 -1.16565e-19)
(-0.703695 0.389171 1.22318e-18)
(-0.0945852 -0.588007 1.98741e-18)
(0.401128 0.550858 3.05947e-19)
(0.947597 0.221636 -1.5514e-18)
(0.599767 -0.267476 1.37071e-18)
(0.440914 -0.362995 8.4927e-18)
(0.221391 -0.0702436 5.29079e-18)
(0.120406 -0.551418 5.41753e-19)
(-0.0744561 -1.30994 1.74151e-18)
(-0.0100048 -0.173428 7.06297e-19)
(-0.618506 -0.0367593 1.41254e-17)
(-0.172717 0.266664 1.29478e-17)
(0.841633 1.13952 3.29586e-18)
(0.0172091 -0.406909 1.83546e-18)
(0.135799 -0.775211 7.92277e-21)
(0.00733042 -0.235955 7.75822e-21)
(-0.229652 0.00298806 2.07415e-19)
(0.454842 0.661851 9.94624e-19)
(0.552068 -0.0886132 -6.90074e-19)
(-0.534143 0.309364 1.38015e-17)
(0.102167 -0.245301 -5.89637e-19)
(0.514265 -0.0773248 8.42145e-18)
(0.746946 0.113489 1.6391e-18)
(0.397223 0.293428 2.48069e-19)
(1.38529 0.914239 1.06498e-18)
(-0.0803779 -1.20266 3.30771e-19)
(0.190372 -0.240808 -1.02184e-18)
(-0.379197 0.190892 1.54139e-17)
(0.13588 -0.7439 -8.5559e-20)
(0.930077 1.43097 5.41706e-18)
(-0.404926 0.289206 1.46293e-17)
(-0.284461 0.189272 1.27898e-17)
(0.545898 -0.0257654 -3.55345e-19)
(-0.50833 -0.587132 1.13626e-17)
(0.118792 -0.600579 -3.39643e-20)
(0.539688 0.788553 1.41129e-18)
(0.37151 -0.261947 7.27126e-18)
(0.885584 1.33023 1.05416e-17)
(0.281738 -0.248668 8.04087e-18)
(0.094913 -0.49999 1.04665e-18)
(-0.521905 0.25182 1.36211e-17)
(0.129658 -0.694509 -1.7025e-19)
(0.175179 0.679159 -1.97988e-18)
(0.695819 -0.255612 -3.25693e-19)
(-0.17855 -0.0461761 2.47418e-19)
(0.166157 -0.310168 7.07632e-18)
(0.257256 -0.274078 8.39112e-18)
(0.643496 0.37598 -2.60506e-18)
(0.324834 0.413051 1.14561e-19)
(-0.0977799 -0.469297 6.64387e-18)
(0.863267 1.67979 8.35432e-18)
(-0.638115 0.158217 1.43105e-17)
(0.3528 0.505134 -7.30617e-20)
(0.965132 -0.480163 9.7347e-18)
(-0.650018 0.116193 8.5059e-18)
(0.319607 -0.182094 -6.45773e-19)
(0.10408 -0.548921 1.41436e-18)
(-0.616964 -0.44869 1.20039e-17)
(-0.383684 -0.12652 2.23779e-18)
(0.345425 0.348276 -1.3904e-19)
(0.631581 0.949303 2.25618e-18)
(-0.00477472 -0.176448 7.90954e-20)
(0.044136 -0.498242 2.13923e-18)
(-0.464922 0.280749 1.40448e-17)
(-0.145113 -1.26236 6.9725e-19)
(-0.333618 0.139197 4.68311e-18)
(-0.0171866 -0.432015 2.14822e-18)
(0.354011 0.179222 4.63383e-21)
(-0.399106 0.461746 7.41752e-18)
(0.0491547 -0.191828 -1.77534e-19)
(0.206186 0.0208142 8.22196e-18)
(0.3593 -0.134019 1.7919e-19)
(0.577551 0.0809082 -1.05676e-18)
(0.122897 -0.673546 -8.35792e-19)
(0.393858 0.608548 4.74515e-19)
(0.289861 0.0995944 6.87662e-20)
(0.863643 0.16343 9.11542e-18)
(0.731919 1.16995 2.19388e-18)
(-0.122519 -0.463654 3.04566e-18)
(0.10587 -0.595284 -6.29213e-19)
(0.350146 0.0779742 2.99566e-19)
(-0.00690418 0.041735 7.38569e-19)
(-0.294427 -0.501778 1.54962e-18)
(0.146006 -0.140771 2.08663e-18)
(0.459131 0.728614 6.14773e-19)
(-0.712354 0.189065 1.31429e-17)
(0.00850917 -0.432988 2.27963e-18)
(-0.85916 -0.173073 1.53868e-18)
(0.3335 1.14061 7.23562e-18)
(-0.405067 0.621698 9.67868e-18)
(0.763543 -0.331514 4.30023e-19)
(-0.618371 0.220042 1.12153e-17)
(-0.485869 0.224222 1.44987e-17)