/*--------------------------------*- C++ -*----------------------------------*\
  =========                 |
  \\      /  F ield         | OpenFOAM: The Open Source CFD Toolbox
   \\    /   O peration     | Website:  https://openfoam.org
    \\  /    A nd           | Version:  8
     \\/     M anipulation  |
\*---------------------------------------------------------------------------*/
FoamFile
{
    version     2.0;
    format      ascii;
    class       volScalarField;
    location    "0.05";
    object      alpha.water;
}
// * * * * * * * * * * * * * * * * * * * * * * * * * * * * * * * * * * * * * //

dimensions      [0 0 0 0 0 0 0];

internalField   nonuniform List<scalar> 
1924
(
8.39561e-11
5.12131e-09
5.29402e-09
4.01444e-06
1.00397e-07
2.25601e-07
9.65811e-07
3.16791e-08
2.81806e-07
1.15217e-08
1.33132e-08
1.1535e-09
5.04228e-16
4.82477e-12
1.03955e-26
8.74911e-35
2.21157e-18
-9.29128e-11
3.02944e-10
5.03815e-16
1.63584e-12
1.00593e-36
2.95222e-22
4.5719e-13
2.98881e-40
5.25036e-44
4.9794e-43
4.55369e-06
1.01305e-11
1
1.78199e-21
1.02526e-40
2.16421e-15
3.26943e-19
1.52684e-07
7.38853e-25
7.14592e-39
1.02606e-10
1
1.18779e-20
1.46054e-41
2.66602e-14
9.4388e-44
9.92237e-21
0.460761
1.77174e-20
3.03959e-06
0.428363
1.52623e-10
6.06361e-11
1.60181e-20
5.8489e-15
2.99439e-35
5.71837e-19
2.03759e-21
1.69187e-06
1.42819e-07
0.0660066
0.00044091
2.69824e-50
3.47262e-21
1.358e-33
1.15381e-19
1
4.37464e-22
0.0193305
1.48089e-54
6.6803e-26
8.3623e-17
1.68784e-18
9.88373e-16
1.08309e-50
1
1
1
1.51127e-19
0.285839
1
1
4.54644e-21
0.827279
1.88331e-46
1
3.38958e-14
2.47614e-13
8.95628e-28
4.15795e-05
5.89352e-25
4.38913e-10
1.20083e-14
1.33032e-48
1.54212e-47
1.10975e-21
1.54419e-23
9.9453e-17
4.66432e-21
0.00034784
0.831185
2.0332e-48
2.50279e-18
8.91338e-14
2.30412e-15
5.91355e-46
3.55902e-49
4.83509e-24
1
3.30353e-15
1.66127e-23
1.44046e-56
1.03983e-22
0.00225743
4.93834e-15
8.46253e-09
1
1
1.46249e-12
3.92162e-11
-6.73418e-43
1.27742e-34
1
2.99642e-15
4.73045e-05
6.78155e-12
5.66589e-14
3.05752e-52
7.51056e-25
9.40743e-21
1
6.50097e-16
1
0.320208
6.20643e-15
8.61413e-20
1
6.18007e-16
1.53187e-18
5.05489e-13
5.36978e-14
0
8.30411e-09
0.000317693
7.06312e-47
0.0477458
3.58678e-19
7.81612e-12
1
2.8858e-24
1.13883e-17
9.68688e-60
5.88275e-38
1
0.000275466
7.93014e-20
5.60227e-17
6.73339e-10
6.04891e-26
6.23844e-06
2.46538e-11
0.000506906
1
1
1.2753e-20
6.84595e-15
0.00114368
1
2.14257e-20
4.73253e-27
2.93306e-06
1
3.04042e-18
1.37803e-15
1.00217e-11
0.999999
3.16516e-51
1.78197e-05
6.17778e-24
1
9.42836e-16
4.68556e-26
4.52908e-17
2.44361e-29
1.16391e-37
1
3.75615e-28
1.52131e-09
0.000198667
6.18783e-21
1.75406e-32
1
1
1.32839e-23
1.29338e-09
0.20487
7.82342e-13
2.77186e-29
0.00299954
3.08888e-35
5.53176e-26
5.3925e-27
6.27543e-24
1.01541e-16
1.9556e-05
2.05502e-21
7.4518e-11
2.96536e-09
3.52627e-31
4.01245e-16
3.47919e-20
1.31112e-18
5.1228e-18
0.000934921
1.126e-17
3.00134e-17
2.23065e-30
6.75064e-34
1
1.4628e-66
1.30363e-25
7.88855e-15
1
1.39093e-26
1
6.06202e-26
5.65498e-21
1.38491e-10
5.80247e-37
0.000143617
0.999959
1.64472e-31
5.32358e-26
2.05657e-21
1.93103e-50
7.98422e-28
2.24051e-17
5.67545e-38
1
2.27078e-18
-9.87388e-18
2.3731e-24
0.152758
-3.19426e-51
2.73694e-29
-2.7093e-11
3.49171e-21
0.835267
1.01224e-17
-2.05219e-13
8.53421e-05
1
0.999994
0.00594698
0.521976
1.16715e-33
1.33685e-20
1
3.31129e-25
4.68962e-47
1.69732e-31
1.74468e-27
7.44106e-17
1.35963e-28
-1.28209e-25
9.99178e-53
1
1.85969e-43
1
3.38216e-15
1
2.37704e-21
0.000208364
6.45388e-26
1
3.55961e-19
2.97777e-35
7.06461e-52
0.0246552
4.46324e-13
5.74709e-39
4.58466e-18
6.16992e-27
3.04058e-16
0.997489
6.11362e-47
7.05935e-34
1.43523e-14
1
0.103061
0.998852
4.56505e-24
2.11513e-31
1.45833e-26
1
1.4208e-40
8.46404e-19
7.17347e-12
1
7.3105e-27
9.21132e-20
1
1.56251e-23
1
1.32928e-20
-1.93106e-11
1.90591e-68
3.82868e-14
3.63317e-39
2.3508e-16
1.84759e-12
8.33137e-34
1
1.38835e-18
2.82953e-36
5.72652e-35
1.06653e-37
0.999998
4.37573e-17
7.95673e-30
6.91383e-19
1.44277e-28
6.51647e-31
1
4.14901e-28
3.47323e-18
1
2.98611e-42
0.997311
1.49574e-32
6.54562e-37
7.85772e-06
8.81886e-05
6.699e-28
5.05682e-57
4.18883e-37
6.74618e-15
1
1.36274e-41
1.30709e-52
8.72291e-29
2.692e-36
-2.11175e-24
0.999659
1
8.411e-42
2.89477e-21
6.61673e-28
-3.66687e-52
-1.5482e-19
-1.16216e-54
3.41654e-39
1.08754e-40
8.14452e-45
0.265513
1
6.59877e-20
4.02703e-17
0.999961
2.45342e-07
5.24314e-21
4.39177e-34
4.60939e-24
2.2588e-43
1.73884e-25
-1.87793e-14
1.47335e-53
2.36724e-43
2.49743e-20
2.70986e-41
2.06113e-28
2.08078e-37
1.19706e-32
-1.53694e-13
4.15545e-32
4.10427e-38
4.66185e-42
4.16123e-49
1.80272e-13
7.09544e-30
7.19272e-29
1.29261e-45
1.05886e-55
3.70644e-56
0.999995
1.62747e-33
3.42934e-33
3.98734e-29
-1.28406e-12
1
4.40443e-54
4.83851e-48
-1.60594e-24
1
1.65844e-40
8.73553e-35
1.99194e-58
3.30695e-31
7.86547e-20
2.73087e-49
2.77856e-44
0.128689
1.84928e-53
1
1
2.49647e-21
2.87905e-22
6.45621e-07
1.12114e-53
1.67224e-14
4.37595e-60
1.10355e-36
-1.39005e-50
1.74614e-44
1.97287e-39
-2.90242e-20
1.33574e-22
7.86173e-39
3.55642e-68
0.0587557
3.34487e-26
1.27236e-29
8.53833e-05
2.68455e-26
1.42567e-30
5.62846e-13
3.89719e-18
2.3048e-49
-2.50039e-15
0.999985
1
9.09531e-43
8.47489e-55
1.75937e-55
0.812948
3.34521e-54
2.98994e-40
5.56814e-35
8.72105e-55
-6.10473e-16
8.41601e-15
9.95362e-24
8.42992e-48
3.26613e-30
1.95029e-53
1.63074e-34
1
1.34376e-56
1
1.39102e-46
1
4.00173e-36
1.24455e-55
5.93172e-30
4.62708e-43
1.26734e-35
1.40008e-06
2.9738e-56
2.02065e-37
-8.54252e-15
6.03397e-31
5.50619e-41
3.3798e-58
0.997284
1.23707e-45
4.34704e-18
6.38511e-40
4.66032e-23
3.07931e-57
1.54225e-61
4.74566e-40
9.5974e-25
1
-5.12978e-54
3.60103e-43
1
0
7.92932e-31
0.999664
1
2.40176e-22
3.24396e-58
-3.4753e-55
4.67157e-48
1.09453e-33
1.69204e-59
2.13386e-63
4.29711e-46
9.16741e-52
-1.1761e-59
5.91535e-58
2.58103e-58
0.999915
1.80011e-16
-3.00101e-56
5.71396e-44
9.25179e-06
2.18898e-27
6.61199e-12
6.37742e-60
3.733e-57
7.65603e-60
1
3.08003e-28
7.16047e-32
1.32261e-31
2.34272e-50
1.73826e-19
-6.28241e-72
4.98808e-33
3.07433e-58
3.51976e-44
-3.04536e-17
0.999967
7.60303e-12
1.97449e-58
5.74019e-37
1.36961e-58
3.92846e-60
5.10913e-50
7.28849e-39
2.26051e-27
4.20017e-59
6.22686e-44
1.50038e-34
0.256098
-9.40331e-18
3.57646e-38
3.18439e-40
1
2.32359e-23
1.83142e-56
7.80552e-42
4.1855e-41
1.84316e-23
8.26567e-46
8.09005e-29
9.28392e-24
7.23815e-65
-9.62646e-35
1.07215e-33
2.14118e-19
-1.08167e-54
9.69517e-48
1
1.23723e-22
0.999996
-1.29486e-14
5.20778e-63
1
1
8.66984e-61
0.00900853
-7.19534e-63
-3.33421e-65
1.05226e-56
2.32272e-45
-1.92906e-62
9.64487e-31
1.56486e-24
1.24371e-23
1
1
1.12097e-53
3.76844e-43
1.07925e-21
1.93995e-62
8.20259e-33
2.81937e-28
0.750922
6.8135e-05
1
1.44543e-46
2.5353e-11
-9.08936e-62
3.61092e-61
3.58526e-60
1
6.56883e-62
5.86527e-28
1.35881e-20
4.20933e-28
1.55812e-33
2.51657e-52
9.35915e-62
4.58609e-27
1.67489e-61
2.11369e-24
2.81087e-23
7.06882e-35
2.91868e-38
1.87673e-11
1
8.31303e-60
2.96234e-46
7.60599e-06
3.88085e-25
2.31392e-24
-4.00127e-30
1.86461e-63
0.999993
5.49881e-67
2.59899e-42
2.99061e-26
1.08143e-36
4.06611e-43
1
5.93434e-47
6.0839e-24
1.18311e-41
0.99755
3.17442e-29
2.37527e-41
4.86907e-59
1.83433e-33
3.42533e-29
0.999451
4.9766e-53
8.10049e-63
1.46417e-39
2.07212e-25
8.55102e-26
1
-6.31777e-19
3.39456e-12
7.10381e-07
-7.39004e-57
1.27077e-36
1
7.79159e-26
3.04139e-64
2.42435e-43
1.7039e-31
2.91355e-61
-1.66596e-68
0.999942
3.80611e-41
2.91054e-48
3.03549e-28
-6.07715e-70
1
-1.24762e-69
-1.63457e-19
1.51962e-69
-3.07659e-68
-1.84005e-51
-1.43881e-63
4.67038e-76
7.75843e-36
1.05762e-56
-3.46854e-47
5.28143e-66
1.53989e-34
5.22991e-45
1.77892e-65
5.20331e-10
7.6367e-41
2.58338e-27
2.93067e-63
3.29691e-45
0.999709
2.0894e-63
3.80236e-33
2.2081e-32
1.11366e-24
1
2.78173e-11
1.00049e-64
1
5.26133e-62
4.31093e-63
1.74427e-47
1.7405e-51
1.49242e-55
0.252098
4.73423e-17
0.996735
-1.28314e-34
3.83233e-11
-5.57108e-34
9.77231e-59
1.13616e-25
1.30222e-30
1.93e-35
2.88119e-35
5.18292e-65
2.12235e-68
-1.76053e-64
-9.89407e-38
2.29542e-65
1
2.33522e-26
3.82953e-26
1
2.76388e-44
1.16183e-05
-8.84419e-66
1.65576e-47
2.39666e-38
1.93794e-32
0.99997
2.29613e-55
-5.77115e-59
1.42232e-12
3.1857e-42
2.99924e-71
3.54053e-21
1.55965e-27
1.54707e-70
-3.79421e-71
-2.32116e-64
2.68261e-44
1.9325e-49
8.08916e-47
2.46218e-27
1.37699e-72
1
-8.74329e-67
5.0799e-45
-1.99923e-71
5.82322e-46
-3.01123e-37
-6.67156e-15
0.999997
9.95595e-67
0.769483
1.32685e-28
1.46241e-62
1.49564e-11
8.3654e-15
-1.54662e-30
7.23936e-26
-1.10587e-20
1.23632e-68
5.82774e-35
1
1.45291e-59
9.41076e-71
-3.57654e-67
5.46318e-67
1.50475e-67
5.65381e-67
3.82841e-44
3.0407e-28
2.14931e-66
5.81416e-13
4.22661e-24
1.01185e-08
1
1.20362e-53
3.44014e-30
1.32456e-50
3.51722e-37
-1.27071e-60
1.76378e-79
1.81258e-29
1
1
2.33439e-42
1
3.79107e-29
1
1.29294e-68
1
4.04522e-68
9.1195e-57
1.68574e-11
-3.98612e-59
1.20069e-33
-7.25552e-68
-4.57629e-59
9.9941e-28
4.24162e-76
6.76062e-65
1.9724e-69
1
-3.37044e-74
1.18387e-22
1.93e-35
5.36299e-54
-2.09894e-66
2.88014e-29
-2.57604e-73
2.55676e-43
0.997658
2.34233e-44
2.73246e-22
8.36228e-17
1
-9.02164e-61
0
4.79333e-38
1
1.0203e-35
7.00974e-49
3.56121e-34
9.91706e-76
-1.26589e-61
9.12047e-12
5.7685e-26
1.42168e-16
1.34687e-73
5.02844e-49
3.05852e-18
5.28879e-28
-2.42281e-65
1
0.261167
4.89539e-46
1
1.29976e-67
-7.92763e-75
6.52605e-58
1
4.29231e-27
1
1.89244e-27
3.64647e-49
8.26351e-32
2.97867e-69
8.95293e-29
-7.55705e-64
2.25477e-37
6.48419e-46
8.19103e-44
-2.68548e-45
1.96977e-30
4.94746e-69
3.53387e-20
1.066e-62
4.52889e-72
6.20492e-72
2.10808e-33
1.85527e-64
2.68938e-13
6.8454e-52
-9.81707e-74
-9.10671e-64
-2.89202e-72
0.999727
2.85865e-78
6.12541e-19
1.97973e-09
8.72857e-06
3.62139e-29
-1.65508e-73
-1.94511e-68
6.80118e-07
1.03662e-49
-5.91924e-75
-3.18127e-62
4.12617e-70
2.69678e-51
-3.00662e-38
1.09998e-69
7.19305e-31
0.779355
1.02916e-66
-5.36787e-75
6.74984e-48
8.0072e-56
7.61216e-30
0.999976
1.4105e-74
0
-2.08007e-76
1
1.77961e-44
-2.40477e-77
2.07908e-31
-3.49182e-67
1.86807e-32
6.78761e-37
4.2808e-18
3.51249e-51
2.70062e-42
-2.13883e-44
-2.04216e-60
1
1.47556e-13
6.59779e-40
2.43478e-09
2.3293e-75
1
4.62343e-51
2.52487e-71
1
-2.32853e-81
-9.17343e-69
5.43017e-79
1.03982e-10
3.13268e-71
1.0554e-70
-2.67967e-65
2.43517e-12
7.20966e-18
1.12146e-55
4.15525e-35
1.93e-35
7.49001e-27
4.24845e-70
4.86038e-47
-2.39861e-68
4.56489e-35
1
1.07096e-55
1.02228e-30
-1.36365e-71
-3.16174e-67
1.52164e-37
5.60495e-32
-2.57863e-76
-3.2332e-46
-7.91751e-75
1
1.02577e-21
1.04019e-14
2.30301e-32
-2.35754e-78
1.19376e-33
-4.48558e-70
1.04112e-59
0.998109
0.999997
2.97371e-66
-1.17933e-66
1
1.35232e-19
9.66113e-37
7.58691e-13
1.84666e-45
4.68124e-32
-1.30359e-76
1.17531e-63
2.9956e-72
-2.66618e-72
1.02819e-52
-3.75776e-78
1.77097e-23
7.62676e-80
8.24841e-53
-4.3064e-78
2.21e-75
0.333266
3.05616e-14
3.20436e-17
2.16354e-18
9.03034e-34
0
-4.5253e-65
-1.36707e-79
4.02369e-34
2.51019e-68
9.53347e-50
-2.9679e-71
1
2.84255e-53
6.822e-76
6.57629e-18
6.46192e-45
1.41655e-12
8.83146e-36
6.02173e-73
1
1.08099e-15
9.04672e-54
-3.27277e-22
3.79447e-33
-1.29355e-80
2.4451e-52
-1.49086e-71
-1.31636e-76
1.12216e-34
1.11869e-13
3.92095e-57
0.999783
-4.40033e-75
-1.94273e-65
1
-3.34555e-85
-5.43288e-78
8.25586e-73
7.14083e-22
-1.20193e-70
-1.69563e-79
2.93045e-48
2.86401e-62
1.34953e-77
3.29291e-73
-5.69478e-70
1
1
2.90733e-55
4.33404e-36
2.18806e-82
1.37768e-15
1.49979e-68
4.28937e-55
0.823995
1.25685e-53
2.26605e-78
2.81249e-80
1.7348e-38
-1.16947e-73
2.65106e-35
8.0801e-52
2.51847e-82
6.29409e-56
3.57483e-24
0
1.4303e-07
1.97073e-35
1
3.11647e-72
5.35567e-37
9.59377e-74
1.15096e-82
5.60906e-27
1.03217e-21
4.11173e-84
-8.18971e-80
9.8922e-56
7.43137e-79
1.22975e-36
2.87605e-52
-2.77181e-35
3.79205e-10
9.8918e-14
1.85044e-13
-2.07293e-81
3.10698e-63
-6.32948e-82
1
1
1
5.80564e-51
1.31219e-17
1.60494e-74
4.66273e-34
1.10948e-35
2.65464e-67
-1.51697e-09
1
-2.41748e-74
1.91187e-46
2.05549e-70
-5.58632e-26
6.31488e-75
5.55411e-75
2.86407e-85
8.93433e-16
1.20074e-82
8.18462e-83
-7.00908e-83
2.4935e-71
-1.38379e-67
1.603e-37
9.54483e-77
0.996764
-3.27066e-16
8.57059e-78
2.99691e-50
5.65408e-79
7.99715e-57
-3.19532e-81
3.51252e-48
3.22841e-57
1
4.12426e-39
1.15539e-13
-5.07331e-64
-1.82967e-78
1.05063e-14
1.48405e-36
2.87867e-73
4.59495e-38
6.85108e-73
5.86779e-58
-9.06426e-83
-5.06769e-84
1.47468e-37
6.97606e-84
6.09166e-61
-3.85244e-79
1
6.24644e-86
4.90982e-66
2.01354e-15
4.75006e-45
9.74935e-57
3.00957e-14
-1.09425e-86
-1.86868e-76
1.17872e-90
8.61077e-70
4.64038e-82
1
1
1.86416e-82
1.33446e-87
-3.76185e-63
0.999637
6.37385e-86
9.24993e-39
3.12194e-59
-4.62948e-77
8.91118e-54
1
1.1463e-87
1.07768e-19
3.1127e-52
8.18462e-83
1.03399e-79
7.35177e-89
1.72419e-40
1.29182e-76
1.53415e-26
9.29247e-27
8.55737e-20
9.67466e-43
3.15267e-79
3.30601e-36
4.65308e-60
-9.83864e-84
1.6512e-87
7.1158e-48
6.26582e-77
1.18679e-28
7.49001e-27
1.75239e-22
-8.68754e-85
6.86087e-60
0.999996
6.82019e-14
2.32966e-84
7.29604e-77
2.3113e-74
9.77135e-69
1.82296e-59
-4.11837e-82
7.8544e-22
2.21749e-16
6.7663e-40
-4.52915e-73
1.26536e-86
3.03549e-28
1.70599e-37
4.01601e-50
-4.34297e-79
0.998109
5.55084e-84
0
1
9.1614e-15
-2.70845e-86
6.2817e-15
4.08278e-78
2.99328e-84
0
3.78288e-39
4.55013e-41
-1.22162e-85
1
-1.5743e-88
-1.50353e-84
1.74206e-31
0.204958
3.24769e-82
2.7978e-09
4.03307e-40
-4.5737e-90
5.45145e-14
-1.99165e-77
1.12386e-51
9.98184e-58
3.94864e-55
1.36961e-41
3.65449e-24
3.25836e-82
2.55e-89
1
1
2.49284e-78
1.06454e-78
3.75689e-52
4.44407e-77
6.01578e-56
-1.77714e-92
2.02898e-61
1.78751e-42
-9.03676e-83
4.24978e-89
2.13879e-90
9.63108e-14
4.17881e-62
1.74314e-87
1
1
1.85656e-86
1
-3.40135e-87
-1.50897e-66
1.31273e-49
1.05856e-82
-5.13141e-62
5.03908e-91
4.52508e-61
-1.42988e-87
-4.33473e-70
8.51367e-88
1
1.10271e-13
8.87775e-88
-2.88362e-75
3.20564e-50
2.33201e-42
2.82587e-79
3.84956e-22
1
3.40367e-88
-4.2552e-81
7.51302e-29
6.19123e-10
1.24417e-10
2.62056e-89
8.32034e-86
-2.76416e-77
1
4.49617e-70
3.80421e-44
1.53299e-51
1.33165e-21
1.15539e-13
1.01287e-24
-3.26374e-86
2.4923e-92
0
4.89109e-91
4.32634e-88
3.34525e-89
5.42628e-61
1.32703e-89
1.15903e-63
3.02238e-50
1.44358e-83
-2.68388e-88
6.79214e-44
-2.97727e-46
4.08278e-78
-6.73718e-83
-5.89071e-92
1.60405e-64
1
4.90204e-95
2.7761e-64
3.95162e-86
8.61688e-73
1.19799e-80
1
6.87698e-20
1
1
-1.58961e-93
1.85893e-80
1.61957e-77
2.2027e-35
1
-1.59257e-84
6.05654e-51
1.91204e-56
-1.30858e-75
5.15303e-64
-7.59424e-39
3.75426e-93
8.36602e-19
7.55187e-44
2.65098e-54
2.65876e-14
0
1.12453e-76
-1.50495e-90
4.85154e-58
2.83344e-45
7.08779e-18
-1.71317e-89
6.02181e-92
1.0131e-46
3.47918e-82
1.26244e-13
2.70529e-91
1.97846e-81
7.81337e-93
3.49589e-93
1.71191e-87
-3.2389e-81
1.43075e-82
1
-7.68981e-90
1.06199e-52
1.28534e-92
5.90872e-91
6.21068e-95
1.28788e-89
1
3.04573e-94
-4.60285e-92
1
1.82772e-56
2.19092e-84
7.9893e-14
1.44222e-86
1
5.01458e-62
4.52287e-91
0.999999
1
7.85705e-16
-2.34876e-90
3.9187e-29
1
1.93219e-53
3.73522e-90
1.40248e-94
5.97507e-20
2.19341e-95
1.49189e-84
3.98328e-86
-5.66578e-85
6.29638e-97
1
5.396e-92
2.71949e-35
2.12897e-56
-2.89781e-91
-4.97197e-63
1.2079e-59
1.45752e-98
1.38226e-92
5.48114e-48
5.3768e-23
3.61145e-46
1.40394e-68
0.999968
0.999717
1
2.53085e-60
1.61722e-91
3.27106e-39
-1.68263e-95
1.43888e-86
1
1.92598e-93
1.31665e-92
5.75276e-96
5.43206e-45
2.44654e-17
0.749885
1.89422e-88
2.72061e-91
1.48367e-13
3.70238e-13
3.48993e-11
1.02264e-49
1
3.4153e-90
-5.52898e-48
6.11112e-97
2.19758e-74
-9.15459e-96
-1.55784e-93
3.84508e-81
-4.19227e-97
2.23672e-07
6.0634e-95
1
1
4.08278e-78
3.15028e-94
1
9.74999e-14
-2.72842e-97
1.00146e-55
4.19974e-95
2.13271e-65
4.11924e-55
9.44125e-66
-5.93589e-92
3.90302e-51
1
1
1.45073e-66
2.06808e-50
1
1.32394e-90
-4.96448e-97
1
-5.51802e-70
1.29497e-88
-1.28213e-75
4.27889e-21
2.80336e-32
-2.34337e-80
-1.19768e-89
7.43613e-13
8.46033e-91
7.56492e-94
1
1.21735e-13
-1.3069e-81
1.26368e-96
9.75647e-48
-1.56554e-93
8.16266e-95
2.12552e-94
-2.67677e-95
0
1.72905e-96
1.1756e-33
1.52183e-100
3.09509e-65
1.18469e-96
1
-4.14963e-95
8.8299e-27
1.92389e-98
3.81072e-49
9.05141e-23
3.53297e-44
1
6.92536e-87
3.03296e-50
-6.77129e-38
3.22442e-102
3.34054e-100
1.79718e-97
3.98015e-57
-6.3483e-98
2.76849e-98
1.15974e-13
1.23643e-24
1.76264e-90
6.44018e-56
2.84118e-94
4.62806e-17
6.07299e-95
-5.97018e-93
2.44426e-90
-3.5118e-99
1.09153e-62
8.2979e-104
1.62424e-103
4.09567e-61
-9.00425e-96
2.51837e-59
1.26746e-13
4.73634e-96
-2.47253e-38
6.30358e-76
-1.65931e-90
0
-6.53114e-101
1.52629e-99
5.07657e-59
1.02475e-100
7.34302e-93
2.40515e-96
-8.03306e-101
1
4.31039e-102
7.50417e-16
-3.45772e-99
0
8.19334e-104
-7.44866e-94
1
5.31349e-70
1
3.26845e-67
1.80428e-58
-2.19818e-97
1
4.81619e-93
5.04319e-93
1.48367e-13
-3.76822e-102
1
2.22427e-107
-4.46907e-99
1
7.18156e-57
1.76256e-48
4.05613e-14
2.6829e-104
-3.01981e-59
1.18069e-44
1
3.43882e-28
4.03205e-32
1.44586e-58
2.61791e-100
1.36095e-58
1.61223e-104
-2.78759e-107
8.24406e-102
1.12856e-109
-2.16939e-100
1.20842e-53
1.0504e-19
-6.20019e-94
5.16809e-106
-1.62464e-105
5.22024e-23
-8.9997e-107
1
2.61439e-65
2.00191e-87
1
1.53864e-65
-5.02955e-103
6.08128e-66
1.4859e-106
6.45701e-80
1.95098e-68
3.6405e-102
3.92476e-103
9.53701e-73
-8.76866e-119
1.45089e-26
2.90082e-59
1.72732e-77
-6.17429e-80
-5.37485e-105
4.62025e-36
1.09595e-113
6.45542e-80
5.00289e-104
-2.26718e-111
-5.18985e-94
1
2.87026e-27
5.74049e-27
3.38822e-85
-4.96075e-106
-8.54247e-100
3.22886e-108
-5.68333e-100
-1.44797e-109
1
2.23681e-97
8.86226e-112
1.82934e-108
3.97479e-98
2.74245e-61
-3.16186e-51
1
-8.47484e-89
-1.27004e-96
-1.05193e-104
5.85086e-53
1.5593e-25
-4.64091e-115
-3.48986e-123
2.41633e-33
5.79019e-110
8.57965e-64
2.10138e-61
-1.94891e-101
5.6338e-110
1.2079e-59
4.25816e-74
1.82775e-100
-6.63976e-117
9.45006e-103
1
2.84118e-94
2.84118e-94
-1.78886e-109
3.08094e-53
2.10845e-21
1.89251e-65
6.45534e-118
1.26896e-110
7.61266e-59
5.78404e-28
-2.0844e-111
2.44855e-59
3.01001e-119
3.54871e-58
7.61266e-59
7.37071e-31
-3.07972e-104
9.64892e-65
-1.53608e-39
-3.33672e-92
6.14872e-69
1
1
1
3.66233e-38
7.88063e-115
-3.79987e-119
1.26549e-112
1.52902e-96
2.36451e-112
1
1.49761e-61
1.8413e-15
-2.38652e-121
8.21148e-61
4.26124e-74
1.00177e-119
1.39408e-45
-1.1954e-127
2.75403e-91
-1.41028e-109
6.94249e-14
1.22947e-14
2.51019e-18
7.36428e-59
2.44842e-104
3.99071e-23
-1.41058e-124
2.68997e-45
2.06846e-108
4.14683e-74
-4.42096e-107
1.46263e-80
1
6.84863e-59
1.04504e-98
1.88329e-60
-1.15522e-122
-1.62733e-97
1.60569e-58
5.20617e-57
1.71514e-122
5.96554e-115
1.56281e-94
-3.65565e-122
1.96238e-103
-3.88147e-104
1.89354e-65
2.68229e-45
2.93013e-98
3.92263e-26
-5.6147e-116
0
2.24621e-46
-9.22642e-124
1
-8.77909e-130
2.97748e-91
-9.47482e-132
4.12907e-20
2.73648e-110
9.92383e-50
5.66908e-68
5.66908e-68
8.21373e-61
1
2.77842e-106
5.48798e-56
7.65298e-41
2.02374e-50
-1.00894e-125
3.76521e-114
-5.96616e-98
9.52953e-43
5.03243e-65
-3.07665e-120
8.67191e-51
-7.05947e-129
2.36741e-31
1
1
1.34329e-152
1.91346e-50
7.29585e-35
-4.63691e-58
2.91143e-22
3.99391e-117
-8.38934e-106
9.38883e-61
1.52846e-74
-1.73928e-132
3.77943e-56
-2.37986e-103
-1.46719e-101
1.08966e-140
4.42455e-143
-6.83022e-127
2.05739e-119
4.07222e-22
5.47116e-25
-1.44082e-104
1.17699e-29
8.02699e-117
-2.0053e-128
3.77663e-143
7.93531e-58
-2.09588e-135
3.42447e-57
-2.43342e-120
1
1
4.25819e-74
1.57591e-145
-7.80731e-41
2.92333e-91
2.9266e-91
5.35073e-65
4.43663e-51
-8.45339e-109
2.01593e-52
4.57e-114
8.28707e-39
5.45597e-56
-3.42719e-142
2.83873e-28
1.00556e-126
1.57211e-17
1.98998e-108
1.93867e-124
1.16197e-35
1.00039e-119
1.07914e-108
8.28181e-111
6.1579e-53
9.5997e-19
1.21237e-61
5.80982e-34
-6.86075e-133
2.81124e-82
-1.85893e-130
1.49243e-148
6.96921e-141
-2.77276e-111
0
1.08868e-117
2.13022e-69
1.32523e-63
5.02682e-65
-3.72715e-144
6.80456e-147
5.43471e-55
1.27734e-40
2.51557e-32
2.81136e-82
2.81787e-82
1.19521e-74
-1.80763e-111
1.56763e-38
1.19234e-118
2.19564e-152
1.10434e-50
1.21172e-61
8.21199e-57
-2.08795e-118
1.01955e-36
4.55681e-152
4.80918e-152
5.74191e-146
6.78012e-64
8.15437e-57
9.91019e-125
1.42226e-74
8.15586e-57
-7.9736e-131
1.01683e-42
3.12015e-45
5.58507e-139
2.09542e-16
2.35829e-64
2.53013e-66
2.53013e-66
2.75728e-57
2.37213e-64
1
1
3.56795e-85
1
3.51309e-49
1
-7.48359e-124
1.57161e-127
-3.1827e-113
-8.44197e-122
-8.0524e-120
-1.06502e-110
1.01422e-133
1.1378e-129
-1.66908e-105
-2.52005e-107
8.54598e-67
2.68996e-67
2.55668e-82
1.69285e-62
1.14493e-64
4.50787e-70
4.50606e-70
2.18537e-53
1.08652e-149
1.72221e-146
1.34421e-143
4.97927e-141
1.17509e-136
1.54032e-138
1.19586e-74
2.98836e-57
1
1.62372e-63
4.50787e-70
8.55995e-67
-1.29619e-65
7.02706e-71
1
6.1142e-12
1
2.64502e-73
-9.81695e-66
5.37504e-36
2.25126e-20
2.26828e-62
1.23577e-70
4.72963e-09
1
1
1
5.7857e-74
1
1.49149e-38
1.80878e-08
1
4.72044e-35
1
1.86743e-15
6.178e-23
1
6.98719e-24
6.73813e-22
0.00356904
3.33306e-05
1
6.2758e-06
0.00113243
0.000224149
1
1
1
1.54154e-21
1.40886e-21
1.40886e-21
1
4.03985e-24
2.54231e-39
3.12003e-25
1.63595e-11
1.22887e-12
1
1
1
3.94517e-07
1
2.41245e-15
8.81449e-08
1.06998e-10
1.27887e-31
0.160328
1.16362e-05
0.985493
0.000307703
2.31059e-06
8.20725e-05
2.15036e-10
1.23383e-10
1
6.17675e-25
4.07925e-16
1
7.57427e-07
2.30897e-20
5.81018e-13
1.08913e-18
1.16777e-12
1.51116e-23
1.56623e-26
1.48743e-21
3.77018e-14
3.54622e-16
4.84792e-18
4.58397e-12
3.84333e-18
1.3599e-11
8.46969e-30
1.4935e-12
2.24985e-13
1.74359e-27
5.37364e-24
1.8336e-21
6.78607e-11
1.74721e-19
8.44893e-11
2.80336e-32
5.09097e-17
8.21886e-29
-4.10245e-11
1.0927e-08
3.84987e-11
9.29614e-10
1.49393e-29
2.25465e-11
2.55907e-11
2.20486e-12
3.18467e-31
5.07263e-08
3.36389e-32
1.86211e-10
5.00031e-09
1.14327e-34
4.56812e-11
7.95356e-11
5.28574e-14
9.57069e-07
2.68919e-33
7.89319e-09
9.24754e-08
-6.35577e-12
)
;

boundaryField
{
    patch0
    {
        type            zeroGradient;
    }
}


// ************************************************************************* //
