/*--------------------------------*- C++ -*----------------------------------*\
  =========                 |
  \\      /  F ield         | OpenFOAM: The Open Source CFD Toolbox
   \\    /   O peration     | Website:  https://openfoam.org
    \\  /    A nd           | Version:  8
     \\/     M anipulation  |
\*---------------------------------------------------------------------------*/
FoamFile
{
    version     2.0;
    format      ascii;
    class       surfaceScalarField;
    location    "0.05";
    object      alphaPhi0.water;
}
// * * * * * * * * * * * * * * * * * * * * * * * * * * * * * * * * * * * * * //

dimensions      [0 3 -1 0 0 0 0];

internalField   nonuniform List<scalar> 
2805
(
2.60008e-11
-2.67062e-11
3.36061e-13
3.20654e-10
-3.12632e-10
7.68381e-10
-7.81152e-10
2.44168e-12
2.13786e-09
-8.82805e-09
4.06599e-11
9.36438e-12
1.5663e-09
2.21212e-12
7.74247e-10
-1.39422e-09
6.48266e-10
4.09817e-13
1.07753e-10
-7.76636e-13
-7.88567e-10
-2.99381e-11
6.14365e-11
0
1.19647e-12
5.83682e-11
1.21126e-18
-3.27906e-18
-3.73122e-20
1.20288e-12
-1.90337e-14
-4.36624e-35
-8.87804e-29
3.22565e-29
-4.43627e-35
1.53163e-37
1.55348e-21
5.26293e-22
1.91024e-14
1.29548e-12
-2.75897e-11
-3.36812e-13
1.92241e-14
-1.62487e-16
2.3756e-15
2.75018e-16
-1.02041e-14
1.45756e-39
-9.03187e-39
3.7621e-40
9.46957e-26
6.84087e-25
-2.43836e-24
6.56651e-16
1.78797e-14
8.59089e-43
0
8.47105e-47
-6.10285e-46
1.40926e-46
1.49088e-45
-5.2908e-45
2.01865e-09
-5.41497e-11
-1.30134e-08
1.16103e-12
8.42062e-13
-2.03084e-12
-3.38767e-05
-0.000697384
0.00073126
-7.43357e-24
1.86279e-24
1.69472e-43
2.14316e-45
-1.22976e-15
1.12378e-15
9.73171e-17
5.76933e-23
-8.81074e-23
1.57709e-09
3.72302e-11
3.41097e-28
0
1.45213e-41
-6.78753e-41
-2.35567e-12
1.85276e-12
0.000610508
-0.000644385
1.04317e-23
1.13964e-45
6.89751e-44
2.92465e-17
0
-7.86333e-47
-1.89122e-24
-5.04517e-23
-2.281e-05
0.000355908
-0.000433341
5.59807e-19
6.55608e-21
-5.66417e-19
2.39974e-10
2.87453e-08
-3.57776e-08
0.000134775
-3.54242e-05
-0.000307981
1.55869e-12
-4.78013e-12
2.7985e-12
-3.845e-13
1.04117e-13
8.5151e-14
-6.3775e-23
-5.02071e-23
1.47027e-23
7.75564e-19
-1.75765e-37
-5.04167e-39
1.89357e-22
-3.05861e-21
4.17986e-25
-7.08801e-24
-3.98324e-26
-1.31454e-09
-1.83122e-10
2.70355e-06
1.52414e-07
2.54812e-06
-2.83184e-52
-4.48709e-56
1.09701e-52
-2.3578e-23
5.57062e-24
-9.29223e-49
-5.27556e-35
-2.16671e-24
-5.02409e-22
-0.000717712
0.00048935
0.000228361
-1.79094e-24
4.10144e-26
-7.13855e-05
3.7044e-07
-8.45263e-52
8.45993e-52
-1.63245e-56
2.50688e-29
-1.2302e-28
1.57199e-16
8.49063e-22
-1.03442e-20
-5.247e-18
2.63892e-18
-4.60221e-19
-9.58579e-49
2.92761e-50
-0.000107203
-0.000831683
0.000134299
-0.000615991
-0.000215691
-1.51796e-21
1.03922e-21
7.61508e-23
-2.20197e-05
-0.000202277
-0.000779011
0.00016302
-0.000791407
0.000483426
6.35535e-25
0.000101153
-0.000354016
0.000667824
2.13267e-49
6.3155e-47
-0.000652401
0.000370108
0.000282294
1.69448e-16
-8.46689e-16
-1.30533e-15
2.80669e-31
1.41766e-30
6.42245e-08
-3.34627e-27
5.38823e-28
-2.55189e-12
7.8063e-18
-4.97449e-17
-5.21813e-49
5.11992e-49
9.61579e-50
-2.97296e-52
8.18069e-24
5.82018e-26
-1.33042e-27
-1.02746e-25
-5.63599e-18
1.05238e-18
1.19539e-24
-2.40218e-23
-2.25705e-05
1.28387e-07
0.000738214
-0.000212363
-1.12759e-50
-8.84214e-53
-5.00185e-21
-4.05137e-21
1.62038e-13
5.21436e-15
-1.67442e-13
1.69455e-18
4.24125e-49
-3.29552e-48
1.04266e-52
9.42112e-50
6.25999e-29
1.48431e-27
-0.000757856
0.000720017
3.78399e-05
2.4208e-17
-3.76851e-17
2.27503e-18
4.40405e-26
-9.42531e-26
9.30623e-58
-4.589e-56
7.88578e-24
-2.5261e-05
6.27051e-08
2.25359e-18
1.39689e-16
1.74365e-11
0.000220423
-0.000654471
0.000434048
-0.000624741
-0.000166665
2.19231e-15
-7.57621e-15
1.57942e-12
8.07921e-38
-8.74717e-54
7.19602e-38
-9.5117e-37
9.94855e-38
-0.000827019
2.28122e-18
-1.3179e-15
-2.82591e-07
4.92192e-08
2.65534e-08
-5.28757e-15
-1.59532e-16
1.99906e-52
7.00359e-57
-1.31208e-27
3.20588e-26
-3.34674e-26
3.96734e-24
3.38677e-24
-0.000139294
-0.000639717
2.34413e-19
-0.000947807
0.0022043
-0.00125649
-3.56194e-05
-0.000169142
2.88742e-17
1.76204e-21
-2.54324e-21
6.39181e-22
-0.000431979
1.69596e-19
8.84405e-22
-5.59367e-21
6.21654e-17
5.10599e-15
-5.66335e-18
6.62315e-16
3.12884e-11
9.03865e-08
-1.46133e-48
2.35614e-07
-9.04547e-05
-3.66612e-20
3.54506e-20
1.56295e-12
6.02114e-16
-0.00117841
0.000230602
7.82293e-29
2.86396e-21
-1.21685e-61
7.24193e-60
-3.15496e-39
6.26662e-41
0.000122838
0.000247269
-1.47384e-06
4.35439e-22
-6.46378e-22
2.87059e-17
1.28012e-20
2.51812e-12
1.61452e-28
1.30443e-30
1.69426e-08
4.27275e-09
-2.37046e-13
-3.59881e-05
0
-0.000535013
0.000133288
0.000401725
-0.000175012
-0.000479459
7.28523e-24
6.15242e-16
-5.98961e-06
1.76478e-07
-0.00041981
0.000316691
0.000103118
4.03844e-24
2.98631e-30
1.40945e-28
1.9784e-09
2.70523e-09
-0.000649626
-0.000177392
2.19905e-19
9.53014e-17
5.66481e-19
2.4939e-12
1.80137e-15
-0.000651963
-0.000105891
4.03927e-55
6.53645e-08
1.05284e-26
-5.82201e-29
-3.11675e-26
0.000556248
4.63938e-18
-8.23851e-18
-3.22258e-28
1.11271e-28
6.15061e-16
1.30685e-20
1.17165e-31
-2.07197e-31
9.33342e-34
9.32526e-41
7.99404e-38
-0.000741757
0.000545954
0.000195803
1.58949e-30
-8.36725e-33
-2.15235e-12
-6.1918e-12
7.0538e-08
-3.83852e-07
4.49781e-24
2.31632e-24
-1.76559e-34
9.83597e-35
1.12775e-35
-0.000818768
-0.000680253
0.000200794
2.07513e-26
-6.30657e-26
5.24598e-13
-2.57919e-05
-0.000115152
6.98594e-16
1.68019e-32
1.46777e-30
-1.6693e-05
-3.65368e-37
1.96097e-37
4.7585e-38
2.17923e-29
3.26886e-29
3.10028e-30
-1.37169e-31
4.82304e-27
-2.63538e-26
-9.98047e-19
4.33616e-24
-5.93291e-24
-6.7385e-16
3.86907e-13
-3.65567e-33
6.97071e-16
-2.35909e-21
3.81336e-22
-4.74652e-22
-1.61897e-21
-1.56761e-20
-1.52827e-05
0
3.27387e-21
-7.81572e-22
2.0166e-20
-1.12312e-19
8.55659e-33
-1.69843e-34
-8.4249e-36
0.000580723
2.88651e-63
-1.24572e-61
5.14597e-29
3.85213e-18
-0.000650576
1.08587e-05
6.45303e-30
-0.000252719
1.09441e-25
6.53976e-24
-8.12207e-22
1.80744e-14
3.59524e-39
-5.10358e-38
-2.59208e-05
4.89101e-09
0.000578825
-0.000692708
0.000113976
9.43739e-35
7.81554e-33
1.3955e-29
2.45635e-29
-5.14009e-24
-6.06738e-24
8.7344e-52
2.51284e-50
-2.61167e-50
5.18793e-32
1.5882e-41
5.79027e-41
0.000133288
9.15892e-21
3.37723e-21
3.87862e-18
-9.09947e-24
1.00897e-27
1.00352e-25
-0.000865372
9.32526e-41
-1.17935e-56
8.39042e-32
-1.89238e-31
-2.55206e-14
2.11229e-14
2.78534e-24
1.24987e-24
0.000450376
-0.000401725
3.7189e-21
-3.6024e-18
2.03049e-14
8.7426e-08
-0.000578737
-7.31251e-05
-9.66286e-06
-0.00171888
-0.000268487
9.14707e-35
-1.56297e-36
3.23254e-21
-0.000671095
-0.000147672
-3.30427e-27
6.8102e-24
2.90404e-50
-4.33875e-51
2.22092e-36
5.26371e-34
-1.18722e-33
5.07764e-31
8.20296e-20
3.43964e-32
1.46707e-27
-6.68561e-56
6.42226e-56
1.98579e-06
1.34214e-45
-6.54596e-47
0.000460781
-0.000676472
1.26043e-17
-2.023e-17
0.000548065
-0.000653956
7.62202e-25
2.93797e-08
8.02643e-29
-2.97651e-28
-0.000296971
-8.6613e-22
-3.73277e-37
2.31332e-37
2.21521e-38
-8.35512e-55
1.18996e-55
-7.79171e-06
-3.13715e-15
3.12926e-16
1.14792e-41
-1.88718e-41
1.58583e-21
2.61719e-30
-6.61777e-22
-0.0019029
-7.91415e-49
4.40508e-37
8.81374e-35
-6.49517e-17
-1.30412e-15
-1.67895e-05
-6.12802e-05
-0.0022043
0.000266318
8.20297e-20
-1.13361e-25
7.19037e-35
5.75427e-30
1.40938e-27
-0.000544998
-9.93863e-05
3.57052e-44
2.54931e-43
-6.73001e-24
3.62672e-22
-9.15278e-15
-0.000151437
0.000468128
6.91599e-29
-3.35246e-27
5.55372e-22
-8.59538e-22
-0.000102509
3.53024e-27
1.54128e-21
-1.80827e-14
-1.07141e-16
-4.23164e-71
6.65413e-70
-7.97937e-20
1.92182e-16
-3.60453e-40
2.09185e-40
1.36094e-40
2.12641e-19
-3.80928e-19
1.45279e-14
-4.18509e-14
2.02174e-38
-0.00068606
-8.65524e-22
1.42864e-39
-2.19716e-38
2.29104e-37
-1.02493e-38
-1.69683e-40
2.20024e-40
-5.60958e-40
-0.000786242
1.61071e-20
2.6113e-33
2.83643e-22
5.24078e-30
1.65831e-34
-8.42178e-05
6.31398e-32
1.46317e-31
2.45927e-21
0.000293867
-0.000445304
-4.99982e-43
4.79828e-43
0.000638197
-0.000691999
5.87446e-05
6.65197e-36
-4.0198e-41
7.16892e-08
-1.70034e-05
1.9471e-08
1.22155e-32
-1.6758e-56
4.06055e-58
2.75558e-40
-2.17942e-39
4.59371e-18
0.000605875
-0.000595016
2.36683e-44
-4.40707e-44
8.45644e-56
6.71279e-32
4.86429e-30
1.60588e-39
2.15865e-37
2.4576e-21
-5.38232e-05
0.000137077
-1.11481e-43
6.88327e-44
1.10659e-24
9.28437e-25
7.20034e-30
-1.67967e-30
-1.22837e-56
8.86283e-54
1.30635e-56
-1.03693e-60
-2.99553e-41
9.67414e-43
-1.44793e-46
2.46785e-47
-0.000380557
0.000483676
1.4358e-22
-2.36773e-27
1.77148e-20
0.000595402
-0.000668439
-7.17944e-10
2.23382e-10
-2.66797e-10
3.05384e-22
-4.33364e-28
1.42053e-36
-3.13816e-36
8.55476e-27
-2.4765e-25
4.97001e-47
7.2991e-46
-7.13563e-30
2.68463e-27
-1.53665e-17
4.08998e-56
-1.43787e-56
-5.09035e-49
9.72621e-24
7.97379e-51
2.65846e-31
-9.6393e-31
8.43865e-40
-4.71544e-41
6.71721e-32
1.36655e-14
-2.14403e-19
1.45656e-35
-3.25584e-40
1.03588e-46
9.32234e-41
-3.91059e-51
7.6266e-52
9.88418e-16
-1.68473e-15
9.00282e-34
3.77742e-32
-1.28721e-46
5.75742e-47
1.24772e-56
6.91643e-59
1.17804e-59
-5.85405e-05
4.04428e-37
6.74537e-37
1.3297e-32
1.33932e-15
1.85852e-14
-7.0597e-05
5.89894e-58
-1.17129e-52
9.74285e-24
-3.19245e-42
1.1276e-43
1.63713e-38
2.02221e-60
-1.45587e-59
1.2009e-34
6.54893e-32
-1.98748e-50
1.43151e-50
-1.7267e-48
-4.21403e-06
-5.37524e-05
1.00957e-56
-0.000557712
-0.000620696
0.00053532
-0.000637828
2.96697e-24
-8.90004e-24
-7.32847e-26
3.51505e-10
1.52877e-56
-7.14199e-60
4.60534e-15
-1.07273e-16
-4.58258e-15
6.8702e-64
-1.00199e-52
2.91795e-47
-5.05679e-47
5.73145e-43
-1.26298e-41
2.4654e-25
4.46731e-22
1.64176e-25
3.74265e-42
8.03802e-40
5.90195e-71
-3.39154e-70
0.000363117
-2.3511e-14
2.51871e-27
-7.43242e-34
-4.97095e-33
-6.30448e-32
1.48128e-32
6.66957e-08
1.87558e-29
2.62369e-34
4.50596e-34
9.974e-16
1.65833e-22
-5.27144e-49
1.69937e-50
-2.99416e-18
-3.17291e-30
-0.00070485
-8.13619e-05
-0.000615998
0.000516612
-5.9932e-45
1.66292e-45
-2.09474e-55
1.39153e-55
3.92509e-59
-5.06594e-06
-5.18459e-58
-1.9843e-43
5.72912e-43
-1.82705e-42
1.20097e-34
-9.22211e-57
-2.09037e-19
2.68188e-17
-1.03491e-18
-4.55231e-17
1.1732e-25
-8.24471e-51
7.62471e-35
-1.21325e-52
4.09966e-54
5.88397e-38
0.000376642
9.14862e-05
2.24767e-60
-1.58722e-63
4.32303e-49
1.0881e-48
-5.96957e-05
8.41159e-40
2.97871e-59
-1.96882e-59
3.10744e-33
1.19579e-46
2.23701e-39
-4.2069e-06
-9.86557e-09
-9.21052e-58
2.9777e-41
7.96245e-16
6.74356e-21
-2.73293e-33
9.00731e-34
-5.43211e-43
9.45647e-44
-5.96513e-61
1.06961e-59
0.000625965
-0.000674708
-1.48977e-47
7.18061e-48
1.09598e-21
-7.93388e-22
1.96896e-43
5.13618e-27
1.23035e-26
6.80064e-61
2.51969e-63
-2.59791e-63
2.00534e-42
-1.49757e-43
4.62908e-28
-0.000202634
-1.03731e-52
3.55696e-54
-3.22765e-45
1.41177e-46
0.000498921
-0.000583139
2.23719e-17
1.27799e-33
-4.14533e-33
-4.1777e-05
-0.000600035
0.000492832
3.84523e-25
-4.39044e-30
6.29394e-61
4.44983e-63
-1.04738e-59
1.18725e-56
1.15737e-34
3.97771e-37
8.62324e-63
1.40627e-67
-1.13763e-49
-2.56128e-54
-9.52764e-57
3.05591e-58
1.03588e-46
-2.99156e-60
-5.38167e-58
1.84506e-59
-0.000765976
1.75241e-19
-7.60758e-62
4.94112e-48
5.50467e-08
7.85356e-30
-8.03916e-36
2.32558e-14
-1.76013e-14
1.1606e-63
2.07088e-59
-8.5178e-63
-1.47997e-61
-0.000161883
0.00045575
3.15659e-30
1.13042e-35
3.41352e-35
-1.10254e-50
2.66692e-51
5.27042e-23
-7.0484e-79
-1.3454e-75
-7.9688e-34
2.97709e-35
-9.50015e-58
2.74538e-59
-5.36072e-47
4.03068e-48
-5.75014e-20
-9.20216e-32
0.000597961
-0.000656426
6.60372e-15
4.26397e-62
1.84381e-40
2.25774e-62
-2.3863e-62
3.24211e-64
-4.22308e-52
1.36507e-42
4.5497e-28
1.17663e-62
-2.79833e-45
8.53573e-47
-1.4161e-36
0.000290609
-8.75347e-14
-4.26124e-21
5.64628e-42
5.31194e-44
0.000543619
-0.000614216
9.00212e-27
-3.6811e-26
-2.83149e-59
1.64325e-45
1.95727e-42
4.93132e-45
-7.28372e-45
2.43081e-26
3.7123e-25
1.92002e-49
1.39803e-32
-8.19621e-32
1.14317e-26
-3.43783e-26
-1.15015e-66
9.28891e-67
7.63776e-37
5.58828e-37
1.31623e-36
-2.85414e-54
2.98155e-55
-2.79766e-49
1.18114e-49
0.0003145
-0.000476383
1.57691e-25
-2.69364e-26
-3.98575e-05
-2.48983e-17
2.04963e-22
-7.82876e-62
2.18604e-63
-0.000548226
-6.7772e-05
-0.000118244
0.000607594
-4.70059e-67
1.03109e-64
1.97846e-06
-7.52161e-12
-6.67209e-66
8.62341e-63
-6.57787e-70
3.46595e-60
-6.78188e-48
4.68972e-49
-1.52339e-61
4.43745e-63
7.1103e-34
3.0875e-28
-1.03674e-28
3.73898e-26
0.000141367
0.000314383
-8.34231e-05
-8.22368e-56
2.54555e-47
7.13237e-25
9.44132e-66
1.59271e-37
6.27313e-32
-2.66932e-06
1.44105e-08
-4.93048e-05
-4.12669e-52
3.39535e-14
-3.02619e-66
-2.61012e-63
2.47285e-62
-9.3446e-66
0.000574952
-0.000634647
1.0686e-65
-1.53803e-65
4.67565e-31
-4.61411e-30
1.50572e-24
1.05002e-30
-1.20924e-37
-3.00575e-36
-4.84744e-36
-4.38834e-52
1.52966e-53
-6.06545e-65
7.51249e-64
4.47817e-30
3.06147e-65
1.93098e-27
4.16485e-28
4.64248e-27
-8.46787e-36
1.96632e-37
2.06729e-41
-2.21501e-40
9.5049e-14
-7.95663e-14
-0.000308227
-3.42484e-59
5.8924e-60
5.3795e-50
7.83595e-10
1.33939e-09
1.99716e-29
5.54916e-28
9.77923e-31
1.13852e-67
-0.000771264
0.000689918
1.97204e-71
-2.52719e-44
5.62272e-45
1.54046e-29
8.0125e-30
-1.08224e-38
2.93518e-46
-2.66631e-46
-0.000574757
0.000456513
-1.07638e-49
1.02894e-50
-1.8596e-32
1.08861e-45
0.000622612
-0.000659758
-2.03289e-31
1.48197e-31
1.93762e-44
-7.46753e-43
-4.66467e-61
7.99749e-37
4.46156e-33
-0.000689329
-7.58187e-05
-4.94536e-55
6.22279e-65
2.67354e-67
4.46581e-43
4.43837e-29
4.03256e-29
-1.41403e-29
1.74582e-30
0.000462203
0.000145392
-1.098e-21
-6.16772e-30
8.92817e-15
1.39539e-08
-8.56118e-56
3.41142e-57
7.58099e-37
3.97881e-40
-3.952e-05
1.76678e-29
-2.90167e-29
4.86118e-68
2.26706e-47
2.54831e-35
-7.52413e-35
-7.28967e-64
1.10357e-62
-6.86089e-66
1.88883e-67
-0.000657158
1.31528e-44
6.31869e-52
1.15865e-31
5.42412e-70
0.000518009
3.05454e-66
-6.58094e-71
-7.91181e-23
5.76012e-73
9.44147e-66
-6.83444e-73
-5.72378e-52
1.58898e-52
-2.70949e-63
1.06513e-64
8.98472e-79
-4.50736e-78
-1.48898e-36
3.4158e-38
-1.03733e-58
-5.46667e-59
1.03793e-46
1.12012e-69
-3.27383e-49
4.5349e-49
8.14861e-69
8.80966e-45
5.60949e-31
1.58978e-65
-8.08146e-69
4.88097e-49
-4.00035e-48
-3.3208e-05
-1.92419e-65
2.46545e-37
1.01939e-35
1.98356e-28
-6.77804e-29
-3.92633e-05
7.36538e-14
-3.64042e-23
1.59184e-68
-8.19252e-05
-4.80366e-61
1.36384e-62
6.09592e-67
-4.38345e-50
1.23411e-50
-5.76932e-55
-5.06929e-55
1.16591e-56
0.000301933
-1.17896e-14
1.2496e-20
2.26631e-21
-1.00208e-46
2.35002e-14
4.47817e-30
-1.09544e-62
2.98705e-60
7.90692e-29
-1.27873e-29
3.84418e-34
-1.66238e-33
-1.39941e-37
1.27922e-38
-1.76032e-37
-7.52174e-71
6.16538e-69
2.07915e-70
-2.94979e-70
3.65627e-65
7.80571e-40
3.11279e-69
-4.86293e-69
0.000550197
-0.000171669
-0.000378528
2.39926e-29
-5.30762e-29
4.42664e-30
0.000248021
1.42035e-46
1.21076e-08
4.60586e-68
-1.21253e-69
2.46007e-51
-1.18188e-38
8.76395e-40
4.34311e-36
0.000616993
-0.000656781
-1.75525e-57
-1.06436e-58
2.9893e-60
1.34552e-14
-3.9308e-15
3.18593e-46
-2.48369e-45
6.66493e-71
-3.72593e-73
4.49469e-25
1.41827e-29
-1.04388e-30
6.66948e-74
6.8939e-73
2.7006e-77
3.69968e-72
5.79919e-29
-3.53188e-52
3.29411e-53
1.78139e-51
4.7704e-31
4.76701e-76
0.000297102
0.000253094
-1.98137e-65
5.76122e-67
8.14871e-69
-5.88363e-76
-8.11184e-48
1.29693e-48
7.31344e-49
6.08247e-20
-3.93795e-17
-1.76455e-05
-3.23138e-69
4.68232e-68
3.45965e-06
1.92431e-32
-3.17785e-32
8.18336e-67
6.66069e-14
-1.09368e-13
1.22196e-30
-1.02126e-33
2.65842e-28
-5.33445e-28
8.50237e-25
-2.32688e-23
5.24011e-72
-5.07998e-38
-0.0005794
0.000151554
0.000427846
-1.40525e-61
1.71264e-75
4.70332e-70
2.53048e-71
-6.59727e-74
3.29994e-69
1.549e-71
2.63667e-48
4.8597e-32
5.07292e-69
-5.20646e-72
1.80008e-15
3.59164e-27
-2.32175e-26
-2.11178e-28
1.21539e-08
-0.000483676
0.000575162
-1.04129e-54
3.91177e-55
3.57554e-34
1.83531e-54
3.96311e-25
6.5207e-63
-1.71306e-64
1.8234e-85
1.7368e-84
1.89e-32
0.000117197
-0.000545038
0.000427841
5.91612e-46
-0.000606446
0.000538674
6.0161e-33
9.26152e-05
-0.000650327
3.3813e-72
0.000547704
-0.000597009
6.07759e-72
3.35037e-60
6.25594e-69
2.42897e-14
-2.45568e-20
2.09942e-68
2.45001e-37
-1.34088e-36
3.77115e-70
-9.33626e-72
-1.81087e-57
5.58451e-59
1.6316e-31
-8.67741e-32
-3.81826e-73
9.23119e-75
-4.61464e-68
3.14757e-67
5.54511e-78
-0.00016891
0.000483293
5.92829e-76
2.24601e-80
4.34078e-26
1.97352e-38
-1.38541e-38
-8.50905e-58
8.18546e-73
3.24413e-33
-2.81608e-77
6.87992e-47
0.000644099
-0.000672855
7.80572e-40
-2.64353e-46
-5.86063e-26
-5.96648e-18
0.000582959
-0.000622479
-1.61268e-67
6.66944e-74
4.25748e-79
3.90343e-41
-6.08782e-41
0.000459892
2.62815e-39
-8.08893e-52
9.51508e-53
1.13974e-37
3.07378e-79
-1.43686e-61
3.79375e-63
9.08368e-15
5.90944e-30
6.05638e-20
7.11269e-20
-5.61821e-19
1.66841e-77
-6.69999e-53
6.03133e-53
2.19035e-31
1.23914e-67
-1.66745e-69
-0.000588926
0.000505503
0.000309301
-1.76645e-15
9.33862e-49
-8.85257e-05
1.74526e-71
5.24015e-72
-3.97305e-79
-5.39173e-60
0.00059902
-0.000638283
1.01048e-24
-1.0104e-24
0.000290981
-1.31056e-30
1.36345e-30
-4.00636e-53
2.69683e-53
1.24146e-35
-2.39732e-35
-2.01236e-76
4.0029e-73
9.59555e-32
-1.49549e-32
2.53663e-73
2.21801e-39
-4.03425e-38
6.07652e-50
-5.89417e-49
7.04002e-48
-9.34029e-49
-7.02982e-49
3.2437e-34
-3.41176e-73
5.96034e-73
-4.60691e-24
-1.06337e-64
2.36963e-74
-4.49085e-74
2.39561e-75
2.00862e-37
-3.0937e-67
1.91685e-67
2.4382e-15
-6.64375e-16
-2.39219e-54
8.27804e-55
5.07969e-76
-1.16901e-77
4.70924e-66
-1.13813e-67
6.40461e-76
-1.21083e-05
-2.02148e-76
8.98549e-79
2.38621e-20
-2.22508e-20
4.92347e-12
-9.19944e-12
1.01603e-08
-4.59893e-32
6.05465e-33
-3.09187e-77
1.56188e-80
1.01228e-70
-2.33607e-72
1.94224e-10
-1.52123e-51
2.04102e-52
-6.80028e-79
2.16365e-71
-2.69226e-73
1.55944e-72
4.08691e-55
1.89e-32
5.01753e-73
-2.38365e-75
1.10747e-34
-7.69615e-35
-7.07902e-06
1.2823e-70
-1.08934e-78
-1.14991e-84
3.86089e-52
-2.36368e-57
1.08034e-57
1.59243e-32
-1.21878e-33
0.000640836
-0.000658424
6.69626e-79
-1.43096e-52
-1.97523e-80
0.000569661
-2.19567e-05
3.29675e-48
-2.11771e-47
3.99833e-79
1.51894e-83
2.86171e-35
1.9147e-76
1.84072e-36
-7.76531e-40
1.31147e-21
1.38247e-55
-2.45922e-44
1.19254e-44
-1.49761e-45
-5.5393e-60
1.57791e-61
-3.67854e-05
5.52419e-16
-4.24369e-42
7.08713e-12
-1.97529e-11
3.26882e-82
-0.000541418
0.000459493
4.36593e-56
3.1552e-75
-1.40496e-05
-2.15814e-85
1.40036e-83
4.68608e-71
-1.97588e-73
1.48472e-82
1.01616e-08
1.76951e-75
4.23203e-75
-1.08809e-64
2.6069e-66
3.50287e-15
-2.04874e-18
2.9152e-20
-2.86438e-31
2.46979e-56
-2.50419e-56
3.46928e-38
1.42714e-38
7.05672e-39
1.34909e-28
-6.69522e-30
-1.5351e-72
1.68334e-71
1.08598e-50
-1.74964e-67
1.3817e-68
5.93737e-39
-1.32497e-38
-2.34583e-05
6.00748e-62
1.32809e-33
-2.21046e-37
7.11387e-74
-1.52221e-75
3.34461e-76
1.94133e-49
3.04867e-41
8.25985e-35
-1.174e-35
1.34532e-78
-2.81824e-80
-7.61228e-55
1.41466e-81
-5.02518e-05
-1.55389e-25
-2.65159e-17
1.3769e-18
3.10501e-36
2.39563e-75
-2.01302e-82
1.66111e-37
6.88773e-80
-4.14799e-62
0.000660191
-0.000668583
2.56004e-06
-1.66016e-71
6.11171e-69
-1.3764e-70
-4.03568e-05
0.000515308
-0.000474951
8.35364e-21
-6.03045e-21
7.95128e-41
8.57701e-16
-2.33872e-80
1.09406e-83
-1.54567e-66
7.43551e-76
1.43591e-74
-6.26592e-76
1.30101e-56
-1.12897e-55
-7.17493e-82
-7.29591e-88
1.85638e-26
-7.37094e-82
8.16312e-82
-9.6368e-57
8.48613e-57
-4.45716e-82
7.75626e-79
0.000360289
-2.88614e-16
1.65601e-17
-1.07719e-16
-5.05674e-20
-4.22326e-20
-1.06112e-33
3.56654e-35
5.92327e-85
-8.06761e-74
-1.0913e-83
5.49046e-38
-4.80918e-38
-1.74393e-71
1.83109e-71
7.87619e-54
-9.3533e-53
4.63864e-81
-5.95635e-57
2.75642e-57
3.44777e-78
-6.24913e-78
8.9821e-49
7.47335e-40
-7.94955e-82
8.91546e-77
0.000177724
0.00030557
4.19092e-18
-5.71656e-18
-2.19974e-57
6.26162e-58
-8.10524e-22
-3.61167e-25
1.22699e-35
-8.81375e-37
2.02347e-82
7.88157e-87
2.42982e-54
7.67447e-74
-6.44935e-76
6.75352e-79
-4.8918e-81
1.32044e-38
5.35139e-16
-6.98135e-17
-3.96062e-59
1.97054e-59
2.23859e-06
2.43267e-85
5.06982e-68
-3.59153e-05
-5.44238e-89
2.6076e-90
-8.86581e-82
6.11823e-85
9.12678e-77
-6.0331e-77
4.89449e-25
1.449e-75
-1.67283e-83
5.10154e-52
-4.11868e-51
-4.35216e-62
1.89686e-63
2.81003e-79
-2.80764e-79
9.28649e-77
-7.72569e-79
-5.69626e-79
0.000543839
-0.000115998
-0.000512259
0.000423733
4.008e-59
-2.27099e-38
5.24491e-86
4.81139e-19
-1.81227e-66
2.66523e-67
1.59272e-59
-1.4485e-05
-1.95779e-55
2.04546e-56
8.82621e-82
1.16325e-82
2.37677e-84
-4.9691e-42
8.51064e-83
5.06509e-38
-6.59749e-39
3.57712e-56
5.98205e-86
2.77707e-60
-1.72358e-71
6.34015e-73
5.94305e-12
5.95021e-32
-5.95021e-32
0.000344793
0.000199046
-7.15767e-73
6.19224e-73
6.26607e-41
-6.05474e-77
3.15388e-76
2.14679e-86
-2.04666e-90
-4.78806e-31
6.88251e-24
-5.88633e-24
3.19793e-88
6.11736e-87
1.4314e-63
2.77072e-81
-1.91351e-81
7.44713e-40
-1.53292e-42
-2.38504e-60
3.26045e-56
-2.51414e-39
3.16202e-13
2.2791e-16
3.84541e-16
-1.9717e-17
-3.68533e-85
-3.68099e-91
-3.15911e-65
7.7563e-79
-7.44985e-86
-0.000634613
0.000397064
0.000120945
1.13394e-54
-1.46916e-20
6.6505e-79
9.3453e-37
-3.29737e-41
1.30118e-39
-2.68218e-69
8.36384e-12
0.000442535
0
2.27993e-50
-6.75689e-50
-6.16661e-79
-2.60319e-27
3.8827e-79
3.29221e-79
8.01889e-85
-5.60082e-85
9.5707e-19
-3.12534e-18
1.86389e-84
-1.8638e-84
9.22287e-91
-4.57946e-87
-1.8257e-73
-1.23197e-53
1.15585e-53
2.52214e-41
-2.12355e-41
-4.38585e-78
3.3284e-78
0.000732387
7.32509e-22
3.12082e-88
-7.8591e-54
1.8211e-82
7.91755e-61
-9.14644e-61
-4.97307e-85
8.56631e-90
1.93377e-52
-5.99629e-61
2.7898e-61
-5.27663e-05
2.22401e-43
2.08752e-16
9.84187e-67
-8.20313e-68
9.69479e-81
-2.71377e-82
-1.64417e-17
6.81675e-39
-4.59217e-40
-3.14214e-76
2.90912e-76
4.55859e-42
5.8024e-84
-2.32483e-61
4.75233e-62
-7.98938e-87
7.48095e-86
3.02983e-90
-2.25413e-37
3.67204e-39
-5.14172e-86
7.5559e-86
-3.32966e-63
1.60957e-63
-1.64993e-88
0.000601988
-0.000623945
7.12982e-90
3.86977e-94
-3.22047e-65
5.88306e-67
-3.32027e-17
-1.27086e-21
-5.21694e-47
2.94117e-47
-1.54995e-48
1.17425e-60
-1.04382e-59
1.5716e-17
-1.85313e-17
-8.2777e-91
2.38586e-79
5.37447e-90
-2.86881e-90
-2.73265e-69
4.60448e-71
6.6747e-86
-6.267e-86
0.000623945
-0.000637994
-0.000601988
0.000565203
-1.80707e-84
7.33979e-85
1.31278e-91
3.4232e-66
1.34381e-89
2.20688e-41
-2.66398e-42
1.01224e-63
-1.8784e-73
5.2692e-75
-9.53183e-57
6.52388e-58
-0.000661452
0.000637994
5.58099e-104
-4.93746e-90
2.05063e-23
-2.92523e-22
-1.28738e-23
5.11165e-56
-4.73369e-55
2.6748e-93
-3.58946e-94
5.15818e-82
-9.28044e-82
2.029e-92
1.67211e-44
1.42347e-80
-9.64486e-81
3.58248e-29
-6.49389e-45
1.42277e-87
1.57559e-39
-2.09879e-38
2.00826e-64
5.14534e-86
-7.79805e-88
1.33869e-91
6.73466e-52
-7.33176e-86
8.61496e-81
-2.70957e-33
1.53241e-27
-1.36113e-27
-1.78538e-26
-1.42616e-88
-1.41499e-94
-1.26998e-66
-0.000658883
2.34503e-17
9.4056e-89
1.51525e-80
-1.81537e-82
-1.46079e-76
8.28512e-78
-2.39378e-70
2.29226e-63
-9.25783e-92
-2.56571e-24
-1.81428e-19
-1.05251e-20
-4.96943e-40
3.45157e-41
-6.43813e-75
3.67301e-90
-3.5585e-46
2.48988e-54
-8.45884e-54
2.28256e-81
-4.39709e-83
0.000658229
-0.000652222
-2.91514e-86
5.31519e-88
1.97543e-82
-0.000565203
0.000514951
-2.95962e-17
3.08641e-18
4.80409e-18
-1.41641e-90
-1.61809e-17
-2.62219e-83
-8.75395e-86
9.56405e-87
-2.38504e-60
-1.7277e-48
1.33905e-43
-6.22754e-45
1.8211e-82
-1.9953e-89
0.000207913
0.000234623
-2.40091e-92
2.50611e-97
6.26252e-95
0.000287204
-7.70833e-17
5.80396e-91
1.31302e-13
-1.21242e-11
1.8183e-12
2.72985e-42
-5.81383e-44
-3.10076e-94
-4.48868e-17
-1.50272e-17
3.32845e-88
-1.72769e-48
-1.66235e-59
1.16757e-60
6.71161e-59
1.12787e-45
1.58157e-86
2.7096e-93
1.36842e-97
-0.00047859
0.000362592
-0.00043382
9.59889e-83
6.37315e-83
1.28013e-56
-7.15055e-81
1.81906e-80
1.88954e-60
-1.77219e-96
7.07422e-95
-3.74968e-65
1.78153e-65
-3.36395e-41
6.57192e-43
4.75569e-85
-8.67688e-87
-2.19995e-91
1.93193e-93
2.34376e-92
-1.41172e-92
9.02435e-17
1.28057e-16
-1.55964e-65
3.40809e-66
6.50467e-96
-5.48564e-05
0.000479036
-0.000514951
-4.00688e-90
2.6956e-90
0.000580527
-0.000487911
0
-1.37175e-66
1.08152e-67
1.62385e-53
-2.19857e-54
3.17794e-86
-1.25691e-73
-7.88711e-66
4.04008e-95
4.53839e-65
-5.27832e-65
2.00188e-89
8.48119e-94
-2.41941e-70
4.8017e-72
-4.77359e-90
3.04876e-91
0.000285882
-0.000326239
-8.8506e-17
4.47762e-90
-1.76333e-89
-6.55719e-75
1.33948e-76
9.7553e-54
-3.91177e-54
6.41445e-45
-7.62752e-46
1.84801e-83
2.61134e-25
0.000574788
-2.51508e-90
3.74593e-90
8.76714e-92
2.03021e-31
-7.20592e-32
4.61125e-13
-1.71074e-96
-4.87083e-104
8.98286e-97
1.45659e-79
-2.87928e-81
0.000513482
-6.10247e-74
3.18255e-48
9.45182e-56
-1.56488e-16
3.04191e-16
-3.75233e-28
1.71791e-88
-2.94022e-90
-7.15113e-95
2.33975e-42
-2.09902e-38
1.29101e-94
-2.04845e-89
6.29401e-91
2.30642e-93
6.51065e-65
-6.11878e-64
2.48247e-93
7.84876e-68
2.52521e-54
7.22492e-86
-1.30557e-85
-4.05482e-92
-4.01875e-98
-5.96469e-44
1.18332e-45
-1.77145e-50
-2.1626e-80
6.76545e-82
3.52241e-85
-3.73087e-87
-8.35698e-96
7.35201e-101
6.68169e-69
0.000575162
3.14744e-99
-7.93014e-71
1.65926e-90
-9.78863e-75
2.21442e-84
-3.17013e-86
0.000426269
-2.54606e-23
-2.28205e-24
0.00047816
-0.000133366
0.00125649
-0.000675963
-8.86666e-98
1.99733e-84
-1.47165e-84
-1.7893e-79
0.00030649
7.11086e-95
6.96657e-52
-6.93888e-52
-3.32589e-53
-3.2913e-59
3.31425e-60
4.81455e-87
1.87692e-67
2.20559e-41
0
-1.27846e-95
-1.27733e-20
7.76489e-46
-5.99594e-48
1.49941e-58
-6.57869e-58
-5.63675e-17
-2.85432e-19
-2.32267e-98
7.1718e-99
-6.5236e-80
0
-6.02899e-61
3.32956e-62
1.94819e-49
-4.13333e-21
7.35392e-22
3.17795e-86
-3.84891e-93
6.56207e-95
-2.10778e-93
-3.61592e-46
5.24845e-48
1.13445e-86
-3.13824e-16
4.12312e-16
1.98941e-96
1.09125e-101
-3.59351e-90
1.98454e-83
7.58132e-97
3.64586e-101
1.0396e-101
8.82748e-90
-1.59958e-89
-3.1781e-92
7.95195e-87
0.000668958
-0.000383076
-3.1366e-94
5.71566e-57
-9.54999e-96
7.23444e-95
1.49273e-93
1.44399e-94
-7.39922e-95
8.69926e-92
-6.58574e-92
4.2587e-97
2.42179e-94
-3.84768e-96
0.000181046
1.19488e-66
2.0074e-60
2.30917e-88
-1.85615e-88
-1.47873e-16
4.10908e-90
-8.97563e-64
3.07537e-65
-7.18561e-95
4.46425e-95
0.00072776
-9.95689e-18
7.65657e-101
-2.05237e-35
-1.75912e-32
-0.000600485
1.16668e-57
-3.70923e-57
2.38717e-93
1.29811e-94
8.97215e-99
-6.4469e-22
1.943e-22
3.29255e-99
2.60517e-88
-4.1019e-90
9.8355e-91
8.89302e-96
2.17231e-103
-5.34094e-103
1.0123e-96
-1.99021e-35
2.75411e-61
3.8586e-93
1.70405e-97
-1.0652e-72
1.60888e-63
7.67079e-103
-3.39614e-102
-1.57808e-48
-8.88397e-27
-6.86845e-28
-1.46347e-49
-1.27231e-74
1.53733e-71
-0.000658811
-0.00013502
2.89462e-65
-1.58803e-93
8.80351e-94
-2.20678e-99
1.63661e-104
6.92164e-91
0.000696107
3.22843e-97
6.34118e-94
-6.31187e-94
2.79405e-98
-4.7152e-50
-4.62336e-49
2.01088e-92
-1.74643e-92
-4.03954e-95
1.28981e-94
3.52794e-16
-4.268e-16
-1.43413e-15
-6.12442e-48
1.27974e-49
0.000224831
-0.00055107
2.72266e-95
-5.88189e-55
-3.20014e-99
5.11194e-101
-5.96987e-85
3.34661e-78
-1.4331e-99
-1.70158e-105
4.10909e-90
-5.23736e-97
-8.09552e-97
-1.85223e-101
9.98689e-101
-4.49559e-106
-0.000514951
-1.27232e-74
2.33988e-96
0.000540918
-0.000316087
-1.81376e-101
2.57943e-60
8.3425e-107
-3.25786e-69
8.14105e-68
3.72978e-57
-8.19528e-59
-2.31494e-69
3.22897e-68
-8.26785e-96
-8.19427e-102
-1.79547e-50
2.21178e-52
-0.000253968
-0.000435691
0.000302324
-9.85333e-70
2.02074e-70
-2.02789e-60
1.12164e-54
0.000675963
-0.000494917
3.64284e-94
2.61182e-99
-3.80442e-101
-0.000426269
0.000371413
-8.06314e-71
4.10671e-72
2.18747e-92
-3.63954e-94
-9.99221e-75
2.10216e-76
-6.94019e-24
1.54922e-25
-1.54922e-25
-5.56217e-37
-1.82677e-79
3.86908e-81
3.73498e-99
-4.60433e-16
-2.07062e-15
2.92094e-95
1.35701e-97
7.01635e-98
6.91504e-84
-1.41555e-85
-6.83807e-99
2.01128e-100
1.48212e-49
-1.45304e-53
-4.76525e-98
2.71665e-105
-1.10998e-97
2.24935e-98
8.68683e-106
-1.41285e-100
1.69974e-99
1.50424e-100
7.02873e-105
1.45895e-36
7.04611e-37
-6.82846e-36
3.77088e-107
-3.34903e-108
1.54238e-67
-8.54708e-67
1.13799e-99
-3.98165e-99
-7.30989e-05
5.24647e-97
2.38587e-101
9.8989e-30
-4.12622e-31
5.28874e-103
1.81307e-53
-2.72967e-27
0.000157842
-3.66988e-89
7.18325e-91
-4.71461e-50
-3.32377e-43
-2.54165e-48
1.36248e-106
5.41997e-100
-4.67154e-100
2.42683e-101
5.27124e-61
3.64285e-94
-4.64951e-101
1.36234e-102
-1.92441e-27
-3.48779e-94
2.51431e-94
3.15425e-57
-3.47221e-57
-7.28928e-62
2.57898e-95
-4.05493e-98
-6.98917e-20
1.82072e-21
1.59466e-98
1.0623e-97
-8.77146e-97
5.41151e-96
-4.2336e-103
2.63698e-108
5.83708e-66
-3.28021e-65
-8.90752e-106
2.73752e-110
-5.98872e-105
3.44915e-105
1.19279e-63
-1.67806e-63
-1.16282e-99
-1.14804e-105
-9.51347e-63
1.50477e-16
1.76378e-100
-1.58316e-41
-1.99042e-35
1.04235e-79
-8.67727e-85
8.7905e-93
-1.63218e-94
3.9025e-102
3.43135e-103
-3.76468e-105
1.15376e-110
6.36674e-62
-4.62333e-62
5.09323e-106
-1.5141e-109
-6.8379e-107
2.02458e-100
-2.65526e-105
1.19467e-111
-8.67528e-19
2.94836e-111
-6.56452e-71
6.458e-71
8.40863e-107
-3.8111e-99
0.000225881
-0.000479849
7.51397e-74
0.000439547
-0.000213666
-1.02176e-69
1.1334e-62
-4.52881e-102
8.15143e-97
2.99525e-96
-7.99746e-99
1.98226e-104
-2.60893e-106
0.000494917
-0.000337075
1.52011e-109
1.00093e-115
4.65373e-101
2.15054e-105
0.00012346
-5.95083e-55
6.85816e-57
5.69423e-17
-1.58281e-16
3.83259e-111
-4.65049e-112
-1.6164e-41
-8.02772e-49
-0.000173358
8.44511e-33
-1.07614e-30
-1.91461e-34
1.85081e-60
-6.06203e-63
1.99066e-104
9.27282e-109
1.45904e-53
-1.61835e-60
7.77105e-109
-1.94019e-113
1.4858e-109
-1.3547e-111
1.03806e-105
1.94602e-113
1.07935e-109
7.1371e-58
3.18871e-24
-1.48977e-22
3.28215e-96
-5.72529e-98
1.64904e-110
-2.99653e-116
1.83609e-27
-7.74211e-26
4.72857e-109
-4.96919e-111
-0.000393878
0.000220519
7.40551e-98
2.90102e-91
-0.000371413
0.000298314
-5.55074e-107
2.88621e-112
9.53972e-111
-9.76124e-84
1.85049e-83
1.27663e-106
1.59466e-98
-4.90011e-107
1.94602e-113
3.00215e-121
-2.99183e-29
8.15458e-33
3.80255e-61
-4.06251e-64
5.07769e-116
-1.74355e-38
1.69143e-117
-1.59739e-85
3.11683e-105
-2.50741e-105
1.20829e-113
-8.9096e-116
-2.19483e-99
0.000482987
-0.000248364
2.45344e-29
2.60809e-108
-3.0473e-110
-1.03302e-103
-1.01121e-109
3.25153e-115
-4.33189e-116