/*--------------------------------*- C++ -*----------------------------------*\
  =========                 |
  \\      /  F ield         | OpenFOAM: The Open Source CFD Toolbox
   \\    /   O peration     | Website:  https://openfoam.org
    \\  /    A nd           | Version:  8
     \\/     M anipulation  |
\*---------------------------------------------------------------------------*/
FoamFile
{
    version     2.0;
    format      ascii;
    class       volScalarField;
    location    "0.05";
    object      epsilon;
}
// * * * * * * * * * * * * * * * * * * * * * * * * * * * * * * * * * * * * * //

dimensions      [0 2 -3 0 0 0 0];

internalField   nonuniform List<scalar> 
1924
(
0.208792
0.209294
0.214982
0.215447
0.210766
0.215473
0.215671
0.215625
0.215766
0.214454
0.215766
0.215907
0.214553
0.215821
0.21509
0.214944
0.214695
0.216036
0.206374
0.216056
0.209285
0.214249
0.214457
0.216396
0.214241
0.214232
0.214249
0.207347
0.20917
0.214944
0.214507
0.214233
0.194057
0.214649
0.211249
0.214358
0.214243
0.21208
0.214826
0.214595
0.214242
0.212643
0.214233
0.214499
0.198514
0.19562
0.18168
0.212784
0.173554
0.188406
0.213337
0.214214
0.214256
0.209749
0.179334
0.213624
0.19588
0.206255
0.197814
0.214256
0.214415
0.214917
0.214344
0.21475
0.211196
0.214125
0.214472
0.214329
0.205474
0.213529
0.188057
0.214791
0.214636
0.215029
0.215062
0.189119
0.215351
0.215129
0.213955
0.214215
0.217103
0.214257
0.203648
0.207506
0.20272
0.214278
0.205271
0.215199
0.172539
0.197567
0.214518
0.214237
0.19592
0.207887
0.209334
0.205644
0.215631
0.216827
0.214271
0.185774
0.214524
0.211583
0.214324
0.214249
0.211592
0.215271
0.21386
0.212433
0.214217
0.206636
0.215799
0.210121
0.212494
0.21293
0.214924
0.194464
0.214837
0.214832
0.214138
0.215346
0.194531
0.374641
0.20165
0.183932
0.214534
0.214286
0.201266
0.215151
0.210645
0.451044
0.215756
0.214417
0.970033
0.2105
0.213992
0.213321
0.213233
0.212655
0.216456
0.213007
0.211249
0.214722
1.0683
0.883207
0.214936
0.192994
0.213773
0.198262
0.214186
0.2141
0.195353
0.722147
0.20887
0.214664
0.215136
0.21454
0.389638
0.214096
0.21587
1.37498
0.214285
0.168793
0.214814
0.368241
0.197434
0.214146
0.214635
0.513835
0.215443
0.213072
0.199212
0.215113
0.215284
0.214238
0.2136
0.214613
0.21474
0.551237
0.214288
0.214848
0.214593
0.214852
0.215131
0.214669
0.161694
0.189156
0.21202
0.214572
0.215572
0.214669
0.21425
0.215262
0.215799
0.214938
0.214702
0.712875
0.214557
0.214616
0.214619
0.214576
0.640125
0.201893
0.214473
0.215211
0.207542
0.214557
0.214928
0.213805
0.208302
1.04881
0.360475
0.213992
0.216225
0.214705
0.214532
0.215225
0.21415
0.214525
0.215013
0.215137
0.214603
0.198868
0.214624
0.215907
0.215376
0.214509
0.215912
0.215524
0.214743
0.21453
0.742893
0.214398
0.214588
0.664647
0.214539
0.935337
0.216577
0.214988
0.214697
0.693463
0.214707
0.214489
0.217055
0.214365
0.908592
0.211761
0.215303
0.215047
0.215174
0.215372
0.177028
0.406966
0.21474
0.214439
0.215543
0.215829
0.214227
0.214383
0.214635
0.215078
0.21465
0.214719
0.214219
0.215234
0.214233
0.214955
0.211682
0.215236
0.187497
0.563428
0.214468
0.205095
0.184267
0.214351
0.21433
0.218782
0.215454
0.214482
0.214644
0.21453
0.5751
0.950178
0.214463
0.214786
0.20272
0.214989
0.215894
0.448214
0.215051
0.214445
0.214758
0.214638
0.214512
0.216356
0.180207
0.205436
0.215541
0.214616
0.215173
0.21598
0.790438
0.214722
0.217385
0.214108
0.215385
0.214324
0.213
0.217949
0.214346
0.206425
0.213743
0.214072
0.214772
0.214236
0.215635
0.214055
0.214637
0.215162
0.21477
0.214656
0.214737
0.214422
0.214787
0.212395
0.214289
0.216492
0.214455
0.214317
0.215447
0.216093
0.214484
0.214362
0.214216
0.215624
0.21501
0.214448
0.214268
0.214809
0.214824
0.214799
0.215913
0.211906
0.214241
0.214626
0.215387
0.214731
0.822166
0.214463
0.214037
0.21428
0.214233
0.912446
0.634483
0.216467
0.214414
0.215434
0.155822
0.215138
0.214302
0.198699
0.214473
0.21571
0.216901
0.214284
0.214234
0.214851
0.214233
0.21437
0.214788
0.214822
0.218182
0.214635
0.214269
0.214716
0.214222
0.528091
0.215458
0.215165
0.214237
0.214519
0.214641
0.215288
0.214411
0.214668
0.214422
0.218875
0.214847
0.214289
0.214225
0.214853
0.698234
0.214188
0.214426
0.214304
0.214873
1.00331
0.214228
0.214234
0.216213
0.214731
0.205909
0.215068
0.214589
0.201078
1.16316
0.21422
0.220705
0.214338
0.21427
0.214229
0.214408
0.214166
0.215248
0.214903
0.214835
0.21407
0.219386
0.215759
0.21421
0.215648
0.216048
0.214335
0.22066
0.214646
0.214226
0.216979
0.215622
0.213499
0.214198
0.214206
0.214219
0.217924
0.214209
0.214121
0.214888
0.214207
0.217516
0.207627
0.214908
0.214225
0.21438
0.214213
0.214639
0.194909
0.214376
1.48834
0.214423
0.214877
0.214381
0.214215
0.215017
0.214177
0.214679
0.216592
0.214215
0.214397
0.218947
0.215245
0.214099
0.214549
0.216352
0.214199
0.214396
0.214093
0.214535
0.214221
0.214252
0.214771
0.214951
0.211849
0.214208
0.214129
0.21377
0.219676
0.214299
0.215808
0.213416
0.215156
0.214372
0.214612
0.214377
0.21493
0.214178
0.214271
0.214181
0.214204
0.214186
0.214555
0.214184
0.215776
0.211289
0.214183
0.21411
0.215717
0.216079
0.221877
0.21445
0.214166
0.214187
0.213646
0.216452
0.215055
0.214332
0.214185
0.214682
0.214034
0.215469
0.214183
0.214134
0.217544
0.215286
0.221784
0.214164
0.214634
0.214167
0.214181
0.214173
0.214351
0.214957
0.214533
0.214072
0.215262
0.219182
0.218085
0.214676
0.214368
0.213836
0.214321
0.214179
0.214805
0.214066
0.215222
0.214114
0.214213
0.21448
0.214188
0.214917
0.214279
0.214562
0.214161
0.214133
0.214592
0.214221
0.215011
0.219179
0.214153
0.212071
0.21451
0.214262
0.217134
0.214153
0.214133
0.214596
0.214075
0.214149
0.214185
0.214284
0.213779
0.212134
0.211997
0.214153
0.214057
0.205585
0.214126
0.214303
0.214261
0.217798
0.215622
0.212461
0.214115
0.220095
0.214151
0.214147
0.214118
0.213941
0.214128
0.214215
0.214616
0.216465
0.214148
0.214123
0.214377
0.215003
0.214121
0.211143
0.214241
0.215713
0.214006
0.222227
0.213599
0.214133
0.214059
0.562795
0.212912
0.214052
0.216899
0.214135
0.21546
0.214191
0.214045
0.193463
0.21547
0.214699
0.213337
0.214075
0.215129
0.21432
0.216281
0.214284
0.213971
0.214126
0.21486
0.214189
0.215901
0.214108
0.214254
0.214613
0.214428
0.203998
0.214662
0.217851
0.222033
0.215689
0.214104
0.214944
0.212507
0.214204
0.214309
0.21434
0.214137
0.214429
0.214112
0.215527
0.214032
0.21406
0.192844
0.214111
0.204374
0.214115
0.218211
0.214099
0.214085
0.214073
0.214101
0.214001
0.215024
0.214093
0.214553
0.214113
0.214278
0.214027
0.214083
0.214072
0.21465
0.214177
0.214082
0.214018
0.215563
0.214097
0.214122
0.214191
0.214155
0.212686
0.219477
0.214087
0.21183
0.21408
0.214371
0.214029
0.214058
0.214064
0.219546
0.21287
0.216252
0.214861
0.220242
0.214983
0.21447
0.213883
0.214129
0.216006
0.2157
0.214183
0.214125
0.214073
0.214906
0.214084
0.214179
0.216795
0.214148
0.21462
0.214682
0.215632
0.214069
0.21401
0.2152
0.214111
0.21415
0.214052
0.214051
0.223321
0.213995
0.214074
0.214572
0.211714
0.214074
0.214058
0.214066
0.217154
0.214028
0.214015
0.214022
0.214053
0.214361
0.214054
0.214305
0.214048
0.213999
0.215017
0.193014
0.212788
0.214265
0.217808
0.214114
0.214407
0.519759
0.880783
0.195344
0.214376
0.2178
0.21405
0.214079
0.214635
0.214041
0.214127
0.214049
0.214084
0.214073
0.214174
0.213988
0.213032
0.214049
0.222923
0.615094
0.215872
0.574223
0.214024
0.214096
0.214015
0.218127
0.214032
0.213971
0.215017
0.213488
0.214498
0.214565
0.204064
0.205111
0.208713
0.214217
0.205074
0.21405
0.214409
0.218377
0.214025
0.214063
0.214026
0.214017
0.214074
0.214035
0.214297
0.214034
0.213585
0.21402
0.214502
0.215954
0.214012
0.214023
0.214069
0.214028
0.213966
0.21521
0.214921
0.210546
0.216096
0.204927
0.21445
0.214037
0.215192
0.214705
0.214051
0.213975
0.215394
0.214019
0.214006
0.219486
0.216269
0.188877
0.214036
0.213983
0.214044
0.214337
0.214011
0.203675
0.219027
0.214676
0.212112
0.21426
0.214017
0.214007
0.205236
0.216879
0.214561
0.592602
0.213987
0.214045
0.214112
0.213832
0.214006
0.214158
0.213954
0.214585
0.214817
0.213961
0.214038
0.217038
0.213998
0.214067
0.214019
0.214033
0.21431
0.223154
0.213987
0.213998
0.213991
0.213996
0.213338
0.214091
0.216253
1.31001
0.215985
0.557161
0.214002
0.213988
0.159008
0.213953
0.214002
0.213985
0.214176
0.213963
0.214983
0.214014
0.214009
0.216007
0.214274
0.213995
0.213944
0.213983
0.211702
0.205076
0.214059
0.214677
0.213993
0.196587
0.213931
0.21399
0.21301
0.213984
0.214008
0.214012
0.215925
0.213969
0.213908
0.214779
0.213977
0.194858
0.22272
0.213941
0.517414
0.214003
0.203529
0.21397
0.214128
0.196202
0.213944
0.213974
0.213991
0.216298
0.214012
0.214034
0.213968
0.215962
0.587831
0.214418
0.215363
0.215579
0.216074
0.214202
0.213922
0.214334
0.213991
0.197196
0.213968
0.19523
0.213964
0.213969
0.214967
0.213783
0.21397
0.214826
0.213969
0.19456
0.216234
0.90988
0.205116
0.213989
0.213909
0.213962
0.213963
0.205961
0.196261
0.214284
0.213955
0.214014
0.215538
0.213983
0.217792
0.214484
0.21501
0.213972
0.213955
0.214173
0.213954
0.213894
0.213965
0.214462
0.214085
0.213899
0.213972
0.213989
0.213257
0.935665
0.21421
0.201199
0.543216
0.213969
0.213944
0.213965
0.213957
0.214202
0.213874
0.213951
0.927498
0.213903
0.214021
0.765623
0.2139
0.873848
0.213958
0.214114
0.212218
0.208641
0.213903
0.215635
0.211689
0.213965
0.214533
0.21394
0.213939
0.212991
0.222453
0.213899
0.196906
0.213938
0.214321
0.193595
0.213919
0.213943
0.213998
0.212758
0.214181
0.213943
0.21385
0.213893
0.213933
0.213982
0.21393
0.211916
0.20477
0.213788
0.214249
0.213966
0.209478
0.213885
0.213791
0.199667
0.213784
0.214024
0.21406
0.213946
0.213931
0.213741
0.21378
0.214095
0.213793
0.214391
0.214201
0.216538
0.21541
0.213212
0.213873
0.213864
0.21413
0.213942
0.215574
0.215298
0.213941
0.213945
0.21379
0.213923
0.21496
0.214311
0.215096
0.857651
0.219145
0.213768
0.213941
0.213785
0.213963
0.212789
0.214751
0.194585
0.213751
0.213897
0.213994
0.195204
0.205171
0.213776
0.216802
0.214681
0.213914
0.213828
0.214175
0.215406
0.213979
0.21411
0.213912
0.20715
0.213916
0.213915
0.213943
0.213766
0.214681
0.213912
0.21386
0.216195
0.215724
0.213911
0.214554
0.213962
0.213161
0.213918
0.213728
0.213154
0.196158
0.213916
0.213564
0.214229
0.213904
0.201497
0.211679
0.214126
0.212973
0.213754
0.213149
0.213918
0.213942
0.543288
0.214075
0.213142
0.213897
0.512644
0.213919
0.213134
0.20065
0.213794
0.213188
0.197503
0.213918
0.214111
0.213895
0.213124
0.214055
0.516133
0.511112
0.213845
0.21392
0.21418
0.2158
0.213943
0.213704
0.21201
0.213114
0.213183
0.550275
0.213891
0.175889
0.213128
0.213893
0.213991
0.21389
0.213826
0.213967
0.782187
0.743631
0.21551
0.213872
0.213739
0.214983
0.212004
0.213885
0.213893
0.213703
0.214075
0.215059
0.215018
0.213936
0.213921
0.211996
0.497864
0.198003
0.214052
0.213953
0.214114
0.211983
0.21203
0.213878
0.214426
0.209031
0.205235
0.21197
0.214056
0.780316
0.195221
0.213108
0.213103
0.513902
0.213829
0.211958
0.511311
0.574608
0.213923
0.200222
0.214101
0.214024
0.214226
0.214796
0.213873
0.213939
0.214567
0.213896
0.213895
0.768033
0.558976
0.213724
0.566177
0.211672
0.213897
0.18658
0.211946
0.214694
0.212092
0.212014
0.212957
0.215436
0.213991
0.213899
0.203859
0.214346
0.213961
0.213946
0.211984
0.214067
0.212141
0.213873
0.206037
0.544043
0.213091
0.21387
0.213866
0.786819
0.206004
0.21387
0.194767
0.511236
0.21398
0.199071
0.213859
0.205974
0.213075
0.213933
0.214113
0.213901
0.206107
0.213921
0.205951
0.213812
0.212471
0.178548
0.213969
0.205935
0.214323
0.213669
0.21405
0.214445
0.204556
0.213977
0.211934
0.214713
1.01824
0.876234
0.213872
0.213708
0.205926
0.213703
0.214089
0.213784
0.211959
0.182308
0.740907
0.214446
0.213079
0.213872
0.214763
0.213859
0.213843
0.21386
0.206431
0.213917
0.196387
0.21444
0.21392
0.213902
0.2053
0.195244
0.214052
0.205923
0.213877
0.196356
0.903318
0.213874
0.19633
0.213824
0.19629
0.213886
0.552817
0.211581
0.211369
0.508608
0.213879
0.213899
0.196255
0.767163
0.212879
0.211921
0.212857
0.206171
0.196229
0.196512
0.214747
0.213847
0.205928
0.211661
0.206169
0.185705
0.213794
0.214039
0.213841
0.206551
0.212932
0.184026
0.213873
0.213193
0.54508
0.213804
0.67769
0.21385
0.213969
0.213881
0.213691
0.213192
0.196208
0.213789
0.206753
0.213899
0.211866
0.21318
0.213858
0.213852
0.205924
0.830821
0.21385
0.213067
0.199371
0.214148
0.213186
0.172816
0.213777
0.835374
0.197147
0.213184
0.215369
0.865662
0.172888
0.211909
0.214298
0.214915
0.206155
0.212068
0.213878
0.618165
0.212008
0.21317
0.212089
0.196193
0.213855
0.824819
0.212036
0.214533
0.196517
0.213858
0.214098
0.196597
0.213857
0.213852
0.213611
0.212785
0.213588
0.214038
0.754258
0.831091
0.213113
0.197604
0.206206
0.764323
0.21386
0.212051
0.568422
0.213764
0.205929
0.212015
0.21457
0.623239
0.865141
0.206174
0.213193
0.614515
0.730363
0.747645
0.205348
0.21252
0.196825
0.195276
0.213777
0.213957
0.213822
0.213164
0.213851
0.213857
0.772421
0.213834
0.743137
0.80989
0.214023
0.212038
0.206462
1.10249
0.213828
0.196535
0.213674
0.540762
0.20595
0.540048
0.213841
0.54629
0.213466
0.203319
0.539578
0.214225
0.540699
0.212051
0.213055
0.520189
0.539332
0.206091
0.539332
0.209808
0.594033
0.539457
0.19618
0.206984
0.19647
0.197015
0.784057
1.42086
0.539681
0.213832
0.211587
0.213748
0.213831
0.206098
0.211897
0.205895
0.213821
0.214241
0.213838
0.542968
0.205852
0.193495
0.213156
0.213073
0.213835
0.212751
0.214592
0.761156
0.198341
0.539994
0.214445
0.2146
0.213835
0.205935
0.212046
0.196462
0.206139
0.213729
1.36811
0.211122
0.213197
0.203836
0.543464
0.192132
0.196545
0.205969
0.21206
0.2138
0.543047
0.213814
0.213759
0.54307
0.213145
0.214143
0.59275
0.196807
0.214207
0.213838
0.540386
0.196268
0.21381
0.213657
0.544244
0.213816
0.19617
0.196278
0.213709
0.830298
0.213814
0.1721
0.213804
0.214039
0.213813
0.196337
0.21131
0.213941
0.203936
0.214011
0.195722
0.212038
0.864947
0.56792
0.538574
1.25653
0.213043
0.551066
0.213796
0.20617
0.197211
0.547553
0.75782
0.188235
0.213778
0.214408
0.214532
0.210609
0.211267
0.213085
0.545709
0.213131
0.195236
0.213757
0.213793
0.196572
0.213792
0.211886
0.205201
0.200241
0.54084
0.213687
0.213787
0.203328
0.213742
0.201571
0.756966
0.206031
0.519656
0.757489
0.213115
0.757873
0.213666
0.21319
0.757928
0.212027
0.540191
0.757696
0.213736
0.203816
0.547333
0.7572
0.756486
0.21364
0.214217
0.213645
0.212064
0.205945
0.21377
0.196407
0.214683
0.749766
0.73483
0.755579
0.21303
0.206198
0.213099
0.53723
0.213768
0.548226
0.537652
0.213725
0.213082
0.536775
0.547079
0.210782
0.19254
0.754503
0.537497
0.212012
0.754419
0.192465
0.213709
0.213065
0.211372
0.213623
0.75603
0.754419
0.196589
0.211996
0.752673
0.21382
0.541346
0.213623
0.19616
0.841837
0.721954
0.747249
0.541121
0.210912
0.191568
0.213926
0.211963
0.211979
0.21422
0.192543
0.213017
0.214069
0.213702
0.750565
0.214122
0.20403
0.211874
0.540719
0.214098
0.753294
0.214017
0.21247
0.800871
0.522206
0.213065
0.213605
0.213039
0.206275
0.760307
0.206259
0.810477
0.548824
0.476183
0.211943
0.21392
0.213173
0.213004
0.214229
0.206287
0.537522
0.211861
0.983797
0.849142
0.185252
0.747922
0.206222
0.519902
0.213555
0.214383
0.20596
0.212044
0.206242
0.206061
0.188985
0.214046
0.75197
0.744293
0.213546
0.762196
0.750951
0.213931
0.196589
0.196596
0.773805
0.212983
0.758927
0.542083
0.213802
0.214295
0.762632
0.523996
0.211849
0.761787
0.214326
0.206285
0.788222
0.212862
0.196457
0.211864
0.515878
0.205973
0.214088
0.721759
0.716711
0.21379
0.186989
0.196601
0.213943
0.211411
0.213945
0.196577
0.196601
0.762866
0.213012
0.21315
0.211833
0.21404
0.212823
0.192715
0.549874
0.785844
0.206099
0.214164
0.204281
0.194535
0.214619
0.545869
0.757068
0.213125
0.206055
0.546747
0.21379
0.541904
0.750546
0.196509
0.211055
0.211763
0.205984
0.801336
0.787688
0.196158
0.528749
0.544964
0.547602
0.204149
0.203381
0.211002
0.213096
0.205997
0.523829
0.771974
0.212007
0.195816
0.211481
0.53742
0.763439
0.21195
0.213759
0.196604
0.212809
0.196148
0.204612
0.213731
0.548383
0.773977
0.205997
0.502065
0.196156
0.745694
0.193506
0.748037
0.54307
0.754986
0.21289
0.807176
0.211886
0.535949
0.205826
0.196423
0.743399
0.548458
0.203966
0.543148
0.543802
0.745824
0.206015
0.747262
0.205935
0.741146
0.189896
0.211753
0.193701
0.756302
0.76318
0.537644
0.538101
0.544035
0.541879
0.750403
0.738835
0.202848
0.205827
0.210697
0.196142
0.742504
0.734296
0.538035
0.189729
0.205517
0.203334
0.196135
0.196309
0.210784
0.196072
0.739269
0.550853
0.195423
0.816739
0.541899
0.743924
0.539067
0.188478
0.194546
0.747637
0.465121
0.700637
0.694391
0.487727
0.746199
0.742291
0.545244
0.752738
0.544503
0.744092
0.747454
0.545964
0.740419
0.749026
0.542511
0.539552
0.754881
0.763625
0.750289
0.540706
0.75857
0.538631
0.732432
0.672364
0.674128
0.536097
0.734071
0.738347
0.54608
0.76156
0.188278
0.215167
0.195505
0.196095
0.195841
0.549404
0.741128
0.214558
0.207821
0.195392
0.676677
0.188863
0.214194
0.194061
0.189395
0.537632
0.574329
0.215314
0.205361
0.921109
0.674279
0.95901
0.214171
0.163533
0.214591
0.214255
1.0227
0.200357
0.214582
0.213769
0.667551
0.770188
0.878918
0.916342
0.937863
0.926619
0.77733
0.877277
0.214608
0.576323
0.196479
0.779614
0.665653
0.73713
0.595402
0.214525
0.21415
0.76533
1.15429
0.951545
0.20627
0.212397
0.73922
0.186495
0.215321
0.204652
0.149095
0.526082
0.682898
0.455002
0.503658
0.428782
0.488971
0.508302
0.511633
0.73377
0.761159
0.214297
0.214473
0.184033
0.215384
0.878168
0.614199
0.644417
0.180101
0.20008
0.608668
0.214417
0.185461
0.206646
0.205045
0.674286
0.196466
0.198062
0.165264
0.562715
0.219426
0.183587
0.214374
0.671809
0.186632
0.217841
0.184299
0.725166
0.683456
0.211122
0.214336
0.216895
0.165562
0.158858
0.781598
0.214301
0.217895
0.181498
0.21917
0.214269
0.554394
0.214243
0.217966
0.197906
0.214188
0.206556
0.187754
0.197246
1.29234
0.214204
0.521851
0.93337
0.217257
)
;

boundaryField
{
    patch0
    {
        type            epsilonWallFunction;
        value           nonuniform List<scalar> 
4010
(
0.208792
0.208792
0.209294
0.209294
0.214982
0.214982
0.215447
0.215447
0.210766
0.210766
0.215473
0.215473
0.215671
0.215671
0.215625
0.215625
0.215766
0.215766
0.214454
0.214454
0.215766
0.215766
0.215907
0.215907
0.214553
0.214553
0.215821
0.215821
0.21509
0.21509
0.214944
0.214944
0.214695
0.214695
0.216036
0.216036
0.206374
0.206374
0.216056
0.216056
0.209285
0.209285
0.214249
0.214249
0.214457
0.214457
0.216396
0.216396
0.214241
0.214241
0.214232
0.214232
0.214249
0.214249
0.207347
0.207347
0.20917
0.20917
0.214944
0.214944
0.214507
0.214507
0.214233
0.214233
0.194057
0.194057
0.214649
0.214649
0.211249
0.211249
0.214358
0.214358
0.214243
0.214243
0.21208
0.21208
0.214826
0.214826
0.214595
0.214595
0.214242
0.214242
0.212643
0.212643
0.214233
0.214233
0.214499
0.214499
0.198514
0.198514
0.19562
0.19562
0.18168
0.18168
0.212784
0.212784
0.173554
0.173554
0.188406
0.188406
0.213337
0.213337
0.214214
0.214214
0.214256
0.214256
0.209749
0.209749
0.179334
0.179334
0.213624
0.213624
0.19588
0.19588
0.206255
0.206255
0.197814
0.197814
0.214256
0.214256
0.214415
0.214415
0.214917
0.214917
0.214344
0.214344
0.21475
0.21475
0.211196
0.211196
0.214125
0.214125
0.214472
0.214472
0.214329
0.214329
0.205474
0.205474
0.213529
0.213529
0.188057
0.188057
0.214791
0.214791
0.214636
0.214636
0.215029
0.215029
0.215062
0.215062
0.189119
0.189119
0.215351
0.215351
0.215129
0.215129
0.213955
0.213955
0.214215
0.214215
0.217103
0.217103
0.214257
0.214257
0.203648
0.203648
0.207506
0.207506
0.20272
0.20272
0.214278
0.214278
0.205271
0.205271
0.215199
0.215199
0.172539
0.172539
0.197567
0.197567
0.214518
0.214518
0.214237
0.214237
0.19592
0.19592
0.207887
0.207887
0.209334
0.209334
0.205644
0.205644
0.215631
0.215631
0.216827
0.216827
0.214271
0.214271
0.185774
0.185774
0.214524
0.214524
0.211583
0.211583
0.214324
0.214324
0.214249
0.214249
0.211592
0.211592
0.215271
0.215271
0.21386
0.21386
0.212433
0.212433
0.214217
0.214217
0.206636
0.206636
0.215799
0.215799
0.210121
0.210121
0.212494
0.212494
0.21293
0.21293
0.214924
0.214924
0.194464
0.194464
0.214837
0.214837
0.214832
0.214832
0.214138
0.214138
0.215346
0.215346
0.194531
0.194531
0.374641
0.374641
0.20165
0.20165
0.183932
0.183932
0.214534
0.214534
0.214286
0.214286
0.201266
0.201266
0.215151
0.215151
0.210645
0.210645
0.451044
0.451044
0.215756
0.215756
0.214417
0.214417
0.970033
0.970033
0.2105
0.2105
0.213992
0.213992
0.213321
0.213321
0.213233
0.213233
0.212655
0.212655
0.216456
0.216456
0.213007
0.213007
0.211249
0.211249
0.214722
0.214722
1.0683
1.0683
1.0683
0.883207
0.883207
0.883207
0.214936
0.214936
0.192994
0.192994
0.213773
0.213773
0.198262
0.198262
0.214186
0.214186
0.2141
0.2141
0.195353
0.195353
0.722147
0.722147
0.722147
0.20887
0.20887
0.214664
0.214664
0.215136
0.215136
0.21454
0.21454
0.389638
0.389638
0.214096
0.214096
0.21587
0.21587
1.37498
1.37498
0.214285
0.214285
0.168793
0.168793
0.214814
0.214814
0.368241
0.368241
0.197434
0.197434
0.214146
0.214146
0.214635
0.214635
0.513835
0.513835
0.215443
0.215443
0.213072
0.213072
0.199212
0.199212
0.215113
0.215113
0.215284
0.215284
0.214238
0.214238
0.2136
0.2136
0.214613
0.214613
0.21474
0.21474
0.551237
0.551237
0.214288
0.214288
0.214848
0.214848
0.214593
0.214593
0.214852
0.214852
0.215131
0.215131
0.214669
0.214669
0.161694
0.161694
0.189156
0.189156
0.21202
0.21202
0.214572
0.214572
0.215572
0.215572
0.214669
0.214669
0.21425
0.21425
0.215262
0.215262
0.215799
0.215799
0.214938
0.214938
0.214702
0.214702
0.712875
0.712875
0.712875
0.214557
0.214557
0.214616
0.214616
0.214619
0.214619
0.214576
0.214576
0.640125
0.640125
0.201893
0.201893
0.214473
0.214473
0.215211
0.215211
0.207542
0.207542
0.214557
0.214557
0.214928
0.214928
0.213805
0.213805
0.208302
0.208302
1.04881
1.04881
1.04881
0.360475
0.360475
0.213992
0.213992
0.216225
0.216225
0.214705
0.214705
0.214532
0.214532
0.215225
0.215225
0.21415
0.21415
0.214525
0.214525
0.215013
0.215013
0.215137
0.215137
0.214603
0.214603
0.198868
0.198868
0.214624
0.214624
0.215907
0.215907
0.215376
0.215376
0.214509
0.214509
0.215912
0.215912
0.215524
0.215524
0.214743
0.214743
0.21453
0.21453
0.742893
0.742893
0.214398
0.214398
0.214588
0.214588
0.664647
0.664647
0.214539
0.214539
0.935337
0.935337
0.935337
0.216577
0.216577
0.214988
0.214988
0.214697
0.214697
0.693463
0.693463
0.693463
0.214707
0.214707
0.214489
0.214489
0.217055
0.217055
0.214365
0.214365
0.908592
0.908592
0.211761
0.211761
0.215303
0.215303
0.215047
0.215047
0.215174
0.215174
0.215372
0.215372
0.177028
0.177028
0.406966
0.406966
0.21474
0.21474
0.214439
0.214439
0.215543
0.215543
0.215829
0.215829
0.214227
0.214227
0.214383
0.214383
0.214635
0.214635
0.215078
0.215078
0.21465
0.21465
0.214719
0.214719
0.214219
0.214219
0.215234
0.215234
0.214233
0.214233
0.214955
0.214955
0.211682
0.211682
0.215236
0.215236
0.187497
0.187497
0.563428
0.563428
0.214468
0.214468
0.205095
0.205095
0.184267
0.184267
0.214351
0.214351
0.21433
0.21433
0.218782
0.218782
0.215454
0.215454
0.214482
0.214482
0.214644
0.214644
0.21453
0.21453
0.5751
0.5751
0.950178
0.950178
0.950178
0.214463
0.214463
0.214786
0.214786
0.20272
0.20272
0.214989
0.214989
0.215894
0.215894
0.448214
0.448214
0.215051
0.215051
0.214445
0.214445
0.214758
0.214758
0.214638
0.214638
0.214512
0.214512
0.216356
0.216356
0.180207
0.180207
0.205436
0.205436
0.215541
0.215541
0.214616
0.214616
0.215173
0.215173
0.21598
0.21598
0.790438
0.790438
0.790438
0.214722
0.214722
0.217385
0.217385
0.214108
0.214108
0.215385
0.215385
0.214324
0.214324
0.213
0.213
0.217949
0.217949
0.214346
0.214346
0.206425
0.206425
0.213743
0.213743
0.214072
0.214072
0.214772
0.214772
0.214236
0.214236
0.215635
0.215635
0.214055
0.214055
0.214637
0.214637
0.215162
0.215162
0.21477
0.21477
0.214656
0.214656
0.214737
0.214737
0.214422
0.214422
0.214787
0.214787
0.212395
0.212395
0.214289
0.214289
0.216492
0.216492
0.214455
0.214455
0.214317
0.214317
0.215447
0.215447
0.216093
0.216093
0.214484
0.214484
0.214362
0.214362
0.214216
0.214216
0.215624
0.215624
0.21501
0.21501
0.214448
0.214448
0.214268
0.214268
0.214809
0.214809
0.214824
0.214824
0.214799
0.214799
0.215913
0.215913
0.211906
0.211906
0.214241
0.214241
0.214626
0.214626
0.215387
0.215387
0.214731
0.214731
0.822166
0.822166
0.214463
0.214463
0.214037
0.214037
0.21428
0.21428
0.214233
0.214233
0.912446
0.912446
0.634483
0.634483
0.216467
0.216467
0.214414
0.214414
0.215434
0.215434
0.155822
0.155822
0.215138
0.215138
0.214302
0.214302
0.198699
0.198699
0.214473
0.214473
0.21571
0.21571
0.216901
0.216901
0.214284
0.214284
0.214234
0.214234
0.214851
0.214851
0.214233
0.214233
0.21437
0.21437
0.214788
0.214788
0.214822
0.214822
0.218182
0.218182
0.214635
0.214635
0.214269
0.214269
0.214716
0.214716
0.214222
0.214222
0.528091
0.528091
0.215458
0.215458
0.215165
0.215165
0.214237
0.214237
0.214519
0.214519
0.214641
0.214641
0.215288
0.215288
0.214411
0.214411
0.214668
0.214668
0.214422
0.214422
0.218875
0.218875
0.214847
0.214847
0.214289
0.214289
0.214225
0.214225
0.214853
0.214853
0.698234
0.698234
0.214188
0.214188
0.214426
0.214426
0.214304
0.214304
0.214873
0.214873
1.00331
1.00331
1.00331
0.214228
0.214228
0.214234
0.214234
0.216213
0.216213
0.214731
0.214731
0.205909
0.205909
0.215068
0.215068
0.214589
0.214589
0.201078
0.201078
1.16316
1.16316
1.16316
0.21422
0.21422
0.220705
0.220705
0.214338
0.214338
0.21427
0.21427
0.214229
0.214229
0.214408
0.214408
0.214166
0.214166
0.215248
0.215248
0.214903
0.214903
0.214835
0.214835
0.21407
0.21407
0.219386
0.219386
0.215759
0.215759
0.21421
0.21421
0.215648
0.215648
0.216048
0.216048
0.214335
0.214335
0.22066
0.22066
0.214646
0.214646
0.214226
0.214226
0.216979
0.216979
0.215622
0.215622
0.213499
0.213499
0.214198
0.214198
0.214206
0.214206
0.214219
0.214219
0.217924
0.217924
0.214209
0.214209
0.214121
0.214121
0.214888
0.214888
0.214207
0.214207
0.217516
0.217516
0.207627
0.207627
0.214908
0.214908
0.214225
0.214225
0.21438
0.21438
0.214213
0.214213
0.214639
0.214639
0.194909
0.194909
0.214376
0.214376
1.48834
1.48834
1.48834
0.214423
0.214423
0.214877
0.214877
0.214381
0.214381
0.214215
0.214215
0.215017
0.215017
0.214177
0.214177
0.214679
0.214679
0.216592
0.216592
0.214215
0.214215
0.214397
0.214397
0.218947
0.218947
0.215245
0.215245
0.214099
0.214099
0.214549
0.214549
0.216352
0.216352
0.214199
0.214199
0.214396
0.214396
0.214093
0.214093
0.214535
0.214535
0.214221
0.214221
0.214252
0.214252
0.214771
0.214771
0.214951
0.214951
0.211849
0.211849
0.214208
0.214208
0.214129
0.214129
0.21377
0.21377
0.219676
0.219676
0.214299
0.214299
0.215808
0.215808
0.213416
0.213416
0.215156
0.215156
0.214372
0.214372
0.214612
0.214612
0.214377
0.214377
0.21493
0.21493
0.214178
0.214178
0.214271
0.214271
0.214181
0.214181
0.214204
0.214204
0.214186
0.214186
0.214555
0.214555
0.214184
0.214184
0.215776
0.215776
0.211289
0.211289
0.214183
0.214183
0.21411
0.21411
0.215717
0.215717
0.216079
0.216079
0.221877
0.221877
0.21445
0.21445
0.214166
0.214166
0.214187
0.214187
0.213646
0.213646
0.216452
0.216452
0.215055
0.215055
0.214332
0.214332
0.214185
0.214185
0.214682
0.214682
0.214034
0.214034
0.215469
0.215469
0.214183
0.214183
0.214134
0.214134
0.217544
0.217544
0.215286
0.215286
0.221784
0.221784
0.214164
0.214164
0.214634
0.214634
0.214167
0.214167
0.214181
0.214181
0.214173
0.214173
0.214351
0.214351
0.214957
0.214957
0.214533
0.214533
0.214072
0.214072
0.215262
0.215262
0.219182
0.219182
0.218085
0.218085
0.214676
0.214676
0.214368
0.214368
0.213836
0.213836
0.214321
0.214321
0.214179
0.214179
0.214805
0.214805
0.214066
0.214066
0.215222
0.215222
0.214114
0.214114
0.214213
0.214213
0.21448
0.21448
0.214188
0.214188
0.214917
0.214917
0.214279
0.214279
0.214562
0.214562
0.214161
0.214161
0.214133
0.214133
0.214592
0.214592
0.214221
0.214221
0.215011
0.215011
0.219179
0.219179
0.214153
0.214153
0.212071
0.212071
0.21451
0.21451
0.214262
0.214262
0.217134
0.217134
0.214153
0.214153
0.214133
0.214133
0.214596
0.214596
0.214075
0.214075
0.214149
0.214149
0.214185
0.214185
0.214284
0.214284
0.213779
0.213779
0.212134
0.212134
0.211997
0.211997
0.214153
0.214153
0.214057
0.214057
0.205585
0.205585
0.214126
0.214126
0.214303
0.214303
0.214261
0.214261
0.217798
0.217798
0.215622
0.215622
0.212461
0.212461
0.214115
0.214115
0.220095
0.220095
0.214151
0.214151
0.214147
0.214147
0.214118
0.214118
0.213941
0.213941
0.214128
0.214128
0.214215
0.214215
0.214616
0.214616
0.216465
0.216465
0.214148
0.214148
0.214123
0.214123
0.214377
0.214377
0.215003
0.215003
0.214121
0.214121
0.211143
0.211143
0.214241
0.214241
0.215713
0.215713
0.214006
0.214006
0.222227
0.222227
0.213599
0.213599
0.214133
0.214133
0.214059
0.214059
0.562795
0.562795
0.212912
0.212912
0.214052
0.214052
0.216899
0.216899
0.214135
0.214135
0.21546
0.21546
0.214191
0.214191
0.214045
0.214045
0.193463
0.193463
0.21547
0.21547
0.214699
0.214699
0.213337
0.213337
0.214075
0.214075
0.215129
0.215129
0.21432
0.21432
0.216281
0.216281
0.214284
0.214284
0.213971
0.213971
0.214126
0.214126
0.21486
0.21486
0.214189
0.214189
0.215901
0.215901
0.214108
0.214108
0.214254
0.214254
0.214613
0.214613
0.214428
0.214428
0.203998
0.203998
0.214662
0.214662
0.217851
0.217851
0.222033
0.222033
0.215689
0.215689
0.214104
0.214104
0.214944
0.214944
0.212507
0.212507
0.214204
0.214204
0.214309
0.214309
0.21434
0.21434
0.214137
0.214137
0.214429
0.214429
0.214112
0.214112
0.215527
0.215527
0.214032
0.214032
0.21406
0.21406
0.192844
0.192844
0.214111
0.214111
0.204374
0.204374
0.214115
0.214115
0.218211
0.218211
0.214099
0.214099
0.214085
0.214085
0.214073
0.214073
0.214101
0.214101
0.214001
0.214001
0.215024
0.215024
0.214093
0.214093
0.214553
0.214553
0.214113
0.214113
0.214278
0.214278
0.214027
0.214027
0.214083
0.214083
0.214072
0.214072
0.21465
0.21465
0.214177
0.214177
0.214082
0.214082
0.214018
0.214018
0.215563
0.215563
0.214097
0.214097
0.214122
0.214122
0.214191
0.214191
0.214155
0.214155
0.212686
0.212686
0.219477
0.219477
0.214087
0.214087
0.21183
0.21183
0.21408
0.21408
0.214371
0.214371
0.214029
0.214029
0.214058
0.214058
0.214064
0.214064
0.219546
0.219546
0.21287