/*--------------------------------*- C++ -*----------------------------------*\
  =========                 |
  \\      /  F ield         | OpenFOAM: The Open Source CFD Toolbox
   \\    /   O peration     | Website:  https://openfoam.org
    \\  /    A nd           | Version:  8
     \\/     M anipulation  |
\*---------------------------------------------------------------------------*/
FoamFile
{
    version     2.0;
    format      ascii;
    class       volScalarField;
    location    "0.05";
    object      k;
}
// * * * * * * * * * * * * * * * * * * * * * * * * * * * * * * * * * * * * * //

dimensions      [0 2 -2 0 0 0 0];

internalField   nonuniform List<scalar> 
1924
(
0.0868239
0.0869005
0.0888642
0.0890018
0.0874431
0.0890287
0.089086
0.0890797
0.0891135
0.088675
0.0891185
0.0891559
0.0887122
0.0891384
0.0889125
0.0888681
0.0887793
0.0891998
0.0860138
0.0892087
0.086806
0.0886518
0.0887159
0.0892985
0.0886487
0.0886466
0.0886529
0.0863499
0.0870069
0.0888664
0.0887327
0.0886467
0.0825533
0.0887733
0.0875941
0.0886853
0.0886507
0.0879105
0.0888227
0.0887597
0.0886506
0.0879789
0.0886468
0.0887266
0.0842069
0.0828484
0.0787916
0.0882475
0.0754893
0.0801274
0.0883226
0.0885687
0.0886539
0.0871557
0.0777019
0.0883812
0.082762
0.0864102
0.0840292
0.0886529
0.0886985
0.0888587
0.0886651
0.0887984
0.0876155
0.0886223
0.0887225
0.0886765
0.0858567
0.0883748
0.0803867
0.0888208
0.0887574
0.0888946
0.0889049
0.080762
0.0889889
0.0889276
0.0885911
0.0886234
0.0895501
0.0886553
0.0856289
0.086293
0.085064
0.0886604
0.0860445
0.0889432
0.0753007
0.0832222
0.0887373
0.0886481
0.0828413
0.086502
0.086948
0.0858545
0.0890679
0.0894645
0.0886583
0.0797278
0.0887233
0.0876586
0.0886753
0.0886517
0.0877022
0.088976
0.0884901
0.0879839
0.0886404
0.0861301
0.0891214
0.0872704
0.0880212
0.0882636
0.0888703
0.0821815
0.0888309
0.0888353
0.0886154
0.0889938
0.0826392
0.0664154
0.0842767
0.0790428
0.0887418
0.0886322
0.0844576
0.088935
0.0874177
0.0720395
0.0891159
0.0886855
0.0565849
0.087582
0.0885007
0.0882906
0.0882845
0.0880924
0.089314
0.088192
0.0878004
0.0887994
0.0522205
0.045669
0.0888683
0.0823558
0.0884459
0.0835116
0.0886309
0.0886033
0.0831091
0.0649481
0.0868405
0.0887748
0.0889327
0.0887296
0.0681181
0.0885743
0.0891462
0.0730501
0.0886662
0.0743792
0.0888287
0.0655948
0.083628
0.0885818
0.0887686
0.0682424
0.0890257
0.0882125
0.0840279
0.0889273
0.0889817
0.0886478
0.088425
0.088759
0.0888021
0.0612553
0.0886629
0.0888424
0.0887613
0.0888407
0.0889284
0.0887836
0.0719736
0.0808324
0.087857
0.0887554
0.0890654
0.0887856
0.0886173
0.0889726
0.089132
0.0888718
0.0887958
0.0642543
0.0887509
0.0887649
0.0887674
0.0887547
0.0657874
0.0845086
0.0887036
0.0889566
0.0865373
0.0887504
0.0888682
0.0884592
0.0866468
0.0495867
0.0644709
0.0885312
0.0892467
0.0887975
0.088743
0.0889602
0.0886198
0.0887223
0.0888943
0.0889297
0.088755
0.0843377
0.0887637
0.0891537
0.0890052
0.0887361
0.0891631
0.0890682
0.0888096
0.0887414
0.0596286
0.0886984
0.0887593
0.0639845
0.0887454
0.0460988
0.0893473
0.0888861
0.0887921
0.063074
0.0887964
0.0887291
0.0894809
0.0886596
0.0692498
0.0877555
0.0889836
0.0888625
0.0889424
0.0890145
0.0780228
0.0633222
0.0888086
0.0886918
0.0890593
0.0891326
0.0886441
0.088696
0.0887706
0.0889128
0.088778
0.0888021
0.0886413
0.0889623
0.0886459
0.0888653
0.0876741
0.0889651
0.0801751
0.0600738
0.0887222
0.0859042
0.0796093
0.0886862
0.0886778
0.0900022
0.0890286
0.0887278
0.088768
0.0887415
0.0670599
0.0625843
0.0887203
0.0888227
0.0850296
0.0888832
0.0891673
0.0669579
0.0889031
0.0887156
0.0888148
0.088755
0.0887369
0.0892871
0.0778513
0.0859421
0.0890467
0.088757
0.0889423
0.0891764
0.0676842
0.0887995
0.0895722
0.0886073
0.0890063
0.0886774
0.0881484
0.089722
0.0886844
0.0864776
0.0884298
0.0885944
0.0888181
0.0886458
0.0890884
0.0885293
0.0887752
0.0889351
0.0888187
0.0887818
0.0887898
0.088708
0.0888227
0.0880602
0.088666
0.0893793
0.088719
0.0886751
0.0889808
0.0892264
0.0887275
0.0886878
0.0886396
0.0890771
0.0888834
0.088717
0.0886572
0.0888307
0.088834
0.0888276
0.0891986
0.0879348
0.0886472
0.0887665
0.0890023
0.0888032
0.0605004
0.0887187
0.0885833
0.0886636
0.0886455
0.0664847
0.0681678
0.0893181
0.0886666
0.0890379
0.0699407
0.0889255
0.0886701
0.0837552
0.0887241
0.0890991
0.0894402
0.0886635
0.0886457
0.0888438
0.0886444
0.0886913
0.0888226
0.0888343
0.0897868
0.0887755
0.0886594
0.0887983
0.0886422
0.0592664
0.0890228
0.0889348
0.0886458
0.0887345
0.0887733
0.0889853
0.0887053
0.0887859
0.088708
0.0899651
0.0888273
0.088665
0.0886429
0.0888444
0.0667442
0.0886305
0.08871
0.0886703
0.0888495
0.0426734
0.0886436
0.0886446
0.0892701
0.0888041
0.0861002
0.0889049
0.0887585
0.0843433
0.0579229
0.0886426
0.0904347
0.0886801
0.0886597
0.0886435
0.0887035
0.0886237
0.0889573
0.0888596
0.0888368
0.0885956
0.0901781
0.0891126
0.0886388
0.0890576
0.089197
0.0886801
0.0904485
0.0887635
0.0886424
0.0894614
0.0890893
0.0883651
0.0886336
0.088637
0.0886428
0.0897937
0.088638
0.0886097
0.0888538
0.0886373
0.0896088
0.0863826
0.0888602
0.0886417
0.088695
0.0886388
0.0887767
0.0828215
0.0886911
0.0579215
0.0887076
0.0888379
0.0886959
0.0886424
0.0888909
0.0886272
0.0887892
0.0893723
0.0886391
0.0887011
0.0899999
0.0889592
0.0886029
0.0887476
0.0893361
0.0886335
0.0886679
0.0886008
0.0887427
0.0886444
0.0886537
0.0888168
0.0888722
0.0879951
0.0886369
0.0886124
0.088461
0.090196
0.0886681
0.0891641
0.0883404
0.0889285
0.08869
0.0887679
0.0886923
0.0888662
0.0886292
0.0886589
0.0886284
0.0886356
0.0886305
0.0887483
0.08863
0.0891405
0.0875823
0.0886299
0.0886063
0.089078
0.0892069
0.0907132
0.0887155
0.0886264
0.0886309
0.088442
0.0893139
0.088902
0.0886797
0.0886296
0.0887829
0.0885844
0.089026
0.0886292
0.088614
0.0896251
0.0889852
0.0907501
0.0886261
0.0887752
0.0886275
0.0886316
0.0886259
0.0886863
0.0888731
0.0887431
0.0885944
0.0889646
0.090133
0.0897792
0.0887881
0.0886916
0.0884846
0.0886717
0.088628
0.0888268
0.0885923
0.0889488
0.0886079
0.0886396
0.0887254
0.0886338
0.0888613
0.0886614
0.0887396
0.0886224
0.0886137
0.0887486
0.0886347
0.0888882
0.0901061
0.0886205
0.0879065
0.0887152
0.0886555
0.0895229
0.0886206
0.0886158
0.0887624
0.0885955
0.0886192
0.0886308
0.0886612
0.0884803
0.087969
0.0878869
0.0886199
0.0885894
0.0857825
0.0886141
0.0886703
0.0886551
0.0897604
0.0890493
0.0880408
0.0886081
0.090337
0.0886201
0.0886185
0.0886121
0.0885208
0.0886154
0.0886401
0.0887668
0.0893226
0.0886188
0.0886106
0.0886932
0.0888862
0.088613
0.0876256
0.0886453
0.0890999
0.0885733
0.0908853
0.088439
0.0886139
0.0885905
0.0660699
0.088195
0.0885779
0.0894481
0.0886171
0.0890405
0.0886339
0.0885854
0.0822272
0.0890283
0.0887937
0.0883161
0.0885958
0.0889211
0.0886759
0.0893112
0.0886624
0.0885622
0.0886119
0.0888425
0.0886317
0.0891859
0.0886061
0.0886527
0.0887685
0.088709
0.0854204
0.0887684
0.0897339
0.0908434
0.0890684
0.088605
0.0888697
0.0880633
0.0886359
0.0886703
0.0886816
0.0886156
0.0887108
0.0886081
0.0890671
0.0885815
0.0885909
0.0820651
0.0886077
0.0855899
0.088609
0.0898459
0.088605
0.0886015
0.0885951
0.0886046
0.0885741
0.0888924
0.0886017
0.088747
0.0886085
0.0886615
0.0885801
0.088601
0.0885547
0.0887795
0.0886277
0.0886011
0.0885772
0.08908
0.0886031
0.0886106
0.0886326
0.0886184
0.0881215
0.0901966
0.0886026
0.0878351
0.0885978
0.0886916
0.088581
0.0885905
0.0885927
0.090233
0.0881307
0.0892939
0.088843
0.0904038
0.0888793
0.0887233
0.088523
0.0886128
0.0891894
0.0891004
0.0886301
0.0886141
0.0885954
0.0888569
0.0886017
0.0886022
0.0894257
0.0886175
0.0887612
0.0887881
0.0890557
0.0885946
0.0885748
0.088947
0.0886069
0.0885995
0.0885887
0.0885885
0.0911412
0.0885699
0.0885964
0.0887538
0.0878162
0.0885965
0.0885927
0.0885937
0.0895323
0.0885809
0.0885766
0.0885723
0.0885914
0.0886665
0.0885898
0.0886702
0.0885903
0.0885711
0.0888913
0.0821314
0.0881619
0.0886566
0.089759
0.0886076
0.0887034
0.0574402
0.0528177
0.0828331
0.0886921
0.089727
0.0885907
0.0885969
0.0887605
0.0885854
0.0886137
0.0885881
0.0886013
0.0885964
0.088627
0.0885677
0.0882376
0.0885907
0.0910663
0.0645405
0.0891293
0.0634264
0.0885799
0.088602
0.0885769
0.0898202
0.0885829
0.0885648
0.0888892
0.0883671
0.0887123
0.0887532
0.0853762
0.0857546
0.086937
0.0886405
0.0857195
0.088591
0.0887014
0.089859
0.0885806
0.0885917
0.0885814
0.0885779
0.0885934
0.0885843
0.0886687
0.0885839
0.0884174
0.0885811
0.0887323
0.0891774
0.0885763
0.0885802
0.0885928
0.0885829
0.0885607
0.0889578
0.0888614
0.0873629
0.089209
0.0856915
0.0887162
0.0885851
0.0889461
0.088785
0.088588
0.0885636
0.089008
0.0885809
0.0885746
0.0901415
0.0892678
0.0807542
0.0885849
0.0885663
0.0885462
0.0886797
0.0885764
0.0852667
0.0900644
0.0887851
0.0879235
0.0886558
0.0885807
0.0885747
0.0857814
0.0894428
0.0887371
0.0638985
0.0885677
0.0885857
0.0886077
0.0885083
0.0885748
0.0886215
0.0885567
0.0887585
0.0888289
0.0885536
0.0885873
0.0894878
0.088572
0.0885955
0.0885812
0.088582
0.0886735
0.0910717
0.0885678
0.0885726
0.0885701
0.088572
0.0883619
0.0886005
0.089233
0.0597124
0.0891613
0.0648662
0.0885742
0.0885692
0.0710568
0.0885561
0.0885742
0.0885681
0.0886277
0.0885595
0.0888783
0.0885797
0.088573
0.0892035
0.0886617
0.0885729
0.088553
0.0885669
0.0878125
0.0857501
0.0885925
0.0887849
0.0885722
0.083199
0.0885494
0.0885717
0.088231
0.0885681
0.0885733
0.0885752
0.0891428
0.0885615
0.088542
0.0888174
0.0885651
0.0826348
0.0909841
0.0885528
0.0640383
0.0885746
0.0852198
0.0885621
0.0886123
0.0831073
0.088556
0.0885647
0.088572
0.0892591
0.088579
0.0885856
0.0885623
0.0891178
0.0654964
0.0887029
0.0889983
0.0890623
0.0892025
0.0886382
0.088546
0.0886801
0.0885685
0.0834068
0.0885616
0.0827954
0.0885617
0.0885632
0.0888769
0.088493
0.0885639
0.0888308
0.0885636
0.0825508
0.0892415
0.0463733
0.0857534
0.0885717
0.0885374
0.088561
0.0885601
0.0861059
0.0831248
0.0886648
0.0885584
0.0885557
0.0889808
0.0885661
0.0896272
0.0887276
0.0888868
0.0885649
0.0885577
0.0886278
0.0885586
0.088535
0.0885636
0.0887192
0.0885984
0.0885369
0.0885648
0.0885717
0.0883572
0.0599082
0.0886138
0.0845029
0.0651184
0.0885642
0.0885543
0.0885636
0.0885564
0.0886398
0.0885287
0.0885575
0.0552153
0.0885382
0.0885809
0.0503296
0.0885389
0.0522891
0.0885575
0.0886081
0.0879906
0.0869824
0.0885384
0.0890743
0.0878077
0.0885637
0.0887383
0.0885537
0.0885541
0.088225
0.0908268
0.0885375
0.0833939
0.0885537
0.0886748
0.0822583
0.088548
0.0885554
0.0885745
0.0881008
0.0886322
0.0885556
0.0885209
0.0885356
0.088552
0.0885694
0.08855
0.0878618
0.0856056
0.0884984
0.0886507
0.088564
0.0872611
0.0885329
0.0884996
0.0844226
0.0884969
0.0885813
0.088591
0.0885543
0.0885514
0.0884799
0.0884958
0.0886018
0.0885
0.0886967
0.0886394
0.0893347
0.0890069
0.0882757
0.0885295
0.0885236
0.0886153
0.0885558
0.0890483
0.0889155
0.0885557
0.0885562
0.0884995
0.0885484
0.0888724
0.0886692
0.0889157
0.0599039
0.0899186
0.0884895
0.088556
0.0884977
0.0885633
0.0882481
0.0888015
0.0827007
0.0884862
0.0884708
0.0885729
0.082784
0.0857686
0.0884951
0.0894069
0.0887769
0.0885451
0.0885138
0.0886313
0.0890063
0.0885683
0.0886079
0.0885453
0.0863107
0.0885467
0.0885465
0.0885563
0.0884918
0.0887836
0.0885424
0.0885253
0.0892856
0.0891049
0.0885449
0.0887435
0.088563
0.0882863
0.0885476
0.0884791
0.0882838
0.0830321
0.0885441
0.0884236
0.0886464
0.0885426
0.0849853
0.0878045
0.0886157
0.0882198
0.0884879
0.0882822
0.0885477
0.0885565
0.0651208
0.0885959
0.0882799
0.0885396
0.0632068
0.0885484
0.0882769
0.0843539
0.088502
0.0882946
0.0840098
0.088548
0.0886103
0.0885402
0.0882737
0.088589
0.0635794
0.0630443
0.0885205
0.0885487
0.0886322
0.0891589
0.0885568
0.0884684
0.0879173
0.0882704
0.0882937
0.0663499
0.0885386
0.0767378
0.0882761
0.0885395
0.0885714
0.0885383
0.0885114
0.0885644
0.0462098
0.0444492
0.0890379
0.0885298
0.0884834
0.0888764
0.0879152
0.0885365
0.0885396
0.0884706
0.0885976
0.0888983
0.0888551
0.0885053
0.0885494
0.0879127
0.0617547
0.0840907
0.0885882
0.0885602
0.0886125
0.0879083
0.0879239
0.0885337
0.0886443
0.0868957
0.0857879
0.0879039
0.0885907
0.0496429
0.0827881
0.0882698
0.0882668
0.0634689
0.0885154
0.0878996
0.0630531
0.0641764
0.0885499
0.084221
0.0886081
0.0885794
0.0886441
0.0888195
0.0885297
0.0885553
0.0887381
0.0885408
0.0885402
0.0513252
0.0678296
0.0884785
0.0642414
0.0878023
0.0885411
0.0805372
0.0878954
0.0887857
0.0879412
0.0879197
0.0882152
0.0890133
0.0885706
0.0885422
0.0853223
0.0886957
0.0885619
0.0885573
0.0879098
0.0885967
0.0879585
0.0885334
0.0860477
0.0651871
0.088263
0.088532
0.0885303
0.085447
0.0860365
0.0885319
0.0826188
0.0628884
0.0885636
0.0840453
0.0885277
0.0860264
0.0882586
0.0885529
0.0886114
0.0885427
0.0860709
0.0885495
0.0860179
0.0885099
0.088066
0.0785246
0.0885596
0.086012
0.0886721
0.0884572
0.0885903
0.0886904
0.0856378
0.0885637
0.0878912
0.0887761
0.0561616
0.05073
0.0885326
0.0884733
0.0860084
0.0884536
0.0886045
0.0884977
0.0879017
0.0787311
0.0820081
0.088679
0.0882592
0.0885327
0.0888071
0.0885222
0.0885168
0.0885234
0.0861694
0.0885476
0.083163
0.0887068
0.0885464
0.088543
0.0858086
0.0827952
0.0885929
0.0860067
0.0885348
0.0831523
0.0540293
0.0885336
0.0831442
0.0885126
0.0831306
0.0885359
0.0666504
0.0877026
0.0876778
0.0698817
0.0885354
0.0885401
0.0831186
0.0512802
0.0881606
0.0878871
0.088182
0.0860948
0.0831093
0.0832035
0.0888
0.0885242
0.085822
0.0877989
0.0860945
0.07982
0.0885043
0.0885878
0.0885217
0.0862109
0.0882069
0.0792682
0.0885317
0.0882972
0.0652804
0.088507
0.0772183
0.0885255
0.0885624
0.088536
0.0884679
0.0882997
0.0831016
0.0885018
0.0863142
0.0885415
0.0878689
0.0882937
0.0885235
0.0885264
0.0860065
0.0550274
0.0885257
0.0882551
0.0841546
0.0886201
0.0882971
0.0762628
0.0884981
0.0552763
0.0833881
0.0882955
0.0890088
0.0567478
0.0759619
0.0878829
0.0886456
0.0888651
0.0860906
0.0879431
0.0885347
0.062391
0.0879213
0.0882917
0.0879464
0.0830958
0.0885274
0.0547309
0.0879271
0.0887237
0.0832093
0.0885266
0.0886058
0.0832345
0.088528
0.0885262
0.0884376
0.0881214
0.0884289
0.0885881
0.0513614
0.0551143
0.0882748
0.0835392
0.0861145
0.0511363
0.0885288
0.087934
0.0629166
0.0884936
0.0860074
0.0879233
0.0887455
0.0602973
0.0569459
0.0860905
0.0882986
0.072342
0.0461395
0.047073
0.0858231
0.0880778
0.0833036
0.082805
0.0884987
0.0885591
0.0885157
0.0882898
0.0885221
0.0885275
0.0510925
0.0885204
0.0507423
0.0540442
0.088583
0.0879302
0.0861979
0.0676988
0.0885182
0.0832155
0.0884624
0.0656884
0.0860199
0.0656195
0.0885207
0.0653902
0.0883663
0.0851331
0.0655729
0.0886414
0.0657855
0.0879335
0.0882512
0.0638707
0.0655458
0.0860657
0.0655426
0.0871423
0.0639827
0.065552
0.0830909
0.0862512
0.083196
0.0834034
0.063957
0.0789589
0.0655708
0.0885196
0.0877725
0.0884882
0.0885195
0.0860688
0.0878788
0.0860036
0.0885142
0.0886482
0.0885215
0.0658916
0.0859936
0.0821989
0.088287
0.0882303
0.0885208
0.0881441
0.0887494
0.0509747
0.0838219
0.0655982
0.0887082
0.0887524
0.0885202
0.0860091
0.0879318
0.0831905
0.0860811
0.088482
0.0773592
0.0876041
0.0882995
0.0853383
0.0658354
0.0814804
0.0832185
0.0860235
0.0879364
0.0885072
0.0659084
0.088514
0.088493
0.0659135
0.0882835
0.0886176
0.0706639
0.0832965
0.0886175
0.0885178
0.0656332
0.0831369
0.0885123
0.0884569
0.0660242
0.0885144
0.0830869
0.0831439
0.0884752
0.055076
0.0885137
0.075133
0.0885098
0.088587
0.088513
0.0831557
0.0876559
0.088554
0.0853545
0.0885785
0.0829377
0.0879291
0.0567908
0.0681213
0.0654695
0.0732821
0.0882473
0.0666165
0.0885076
0.0860913
0.083415
0.0655057
0.0508031
0.0803982
0.0885
0.0886855
0.0887326
0.0874218
0.0876646
0.08824
0.0661616
0.0882791
0.0827899
0.088493
0.0885067
0.0832266
0.0885061
0.087875
0.0857713
0.0841347
0.0656746
0.0884681
0.0885042
0.0851705
0.0884874
0.0845699
0.0513944
0.0860387
0.063769
0.0514222
0.088274
0.051444
0.0884611
0.0882963
0.0514488
0.0879253
0.0656185
0.0514388
0.0884862
0.0853341
0.0663123
0.0514151
0.0513796
0.0884514
0.0886401
0.0884543
0.0879363
0.086012
0.0884987
0.0831736
0.0887772
0.0463661
0.0455915
0.0513336
0.0882433
0.0861008
0.0882687
0.0652922
0.088498
0.0664449
0.0653651
0.0884819
0.0882633
0.0652591
0.0662841
0.0875031
0.0818686
0.0512781
0.0653086
0.0879207
0.0506272
0.0818769
0.0884767
0.0882578
0.0876964
0.0884459
0.0513445
0.0512554
0.083232
0.0879154
0.0511597
0.0885111
0.0657213
0.0884468
0.0830832
0.0555255
0.0495795
0.0509921
0.0657066
0.0875477
0.0815073
0.0885482
0.0879045
0.08791
0.0886395
0.0819102
0.0882392
0.088594
0.088474
0.051046
0.0886086
0.0853921
0.0878711
0.0653505
0.0885851
0.0512151
0.0885785
0.0880718
0.0535836
0.0639795
0.0882366
0.0884398
0.0882487
0.0861276
0.0516086
0.0861222
0.0541348
0.0656217
0.0601186
0.0878977
0.0885446
0.0882887
0.088235
0.0886328
0.086132
0.0652998
0.0878668
0.0625555
0.0564024
0.0793519
0.0509045
0.0861092
0.0638909
0.088422
0.0886859
0.0860163
0.0879269
0.0861162
0.0860427
0.0807697
0.0885856
0.0511454
0.0507097
0.0884183
0.0517764
0.0504467
0.0885458
0.0832336
0.0832354
0.0523887
0.0882276
0.0515312
0.0657976
0.0885037
0.0886606
0.0517811
0.0642349
0.0878626
0.0517464
0.0886708
0.0861306
0.0529397
0.0881859
0.0831842
0.0878691
0.063496
0.0860204
0.0885964
0.0495565
0.0492856
0.0884979
0.0801208
0.083236
0.0885472
0.0877137
0.0885403
0.0832296
0.0832368
0.0518187
0.088224
0.0882785
0.0878573
0.0885754
0.0881712
0.0819818
0.0665413
0.0528792
0.0860659
0.0886193
0.0854777
0.0825547
0.0887651
0.0661599
0.0514299
0.0882675
0.0860331
0.0662448
0.0884953
0.0657734
0.0510697
0.0832055
0.0875954
0.087832
0.086024
0.0534414
0.0528083
0.0830821
0.0646559
0.0660727
0.0663277
0.0854352
0.0851854
0.0875762
0.0882549
0.086028
0.0641001
0.0521138
0.0879105
0.08297
0.0877346
0.0652752
0.051853
0.087887
0.0884803
0.0832372
0.0881551
0.083078
0.085573
0.0884714
0.0664033
0.0521367
0.0860276
0.0621752
0.0830809
0.0508131
0.0822367
0.0509412
0.0658914
0.0513175
0.088182
0.0537138
0.0878616
0.065291
0.0859686
0.0831651
0.050687
0.0664078
0.0853708
0.0658909
0.0659535
0.0508147
0.0860105
0.0502527
0.085975
0.0505626
0.0810871
0.0878129
0.0823029
0.0512731
0.0518364
0.0652813
0.065315
0.0659835
0.0658277
0.0510698
0.0504336
0.0850069
0.0859334
0.0874701
0.0830759
0.0505637
0.050179
0.0654394
0.0810293
0.0858288
0.0851372
0.0830733
0.0831148
0.0874864
0.0830511
0.0503717
0.066537
0.0828321
0.0541792
0.0657327
0.0506704
0.0655002
0.0806421
0.0825104
0.0508298
0.0587669
0.0484126
0.048076
0.0608781
0.050752
0.0506211
0.0660924
0.0511963
0.066021
0.05072
0.0509033
0.0661618
0.0505177
0.0509883
0.0658304
0.065459
0.0513414
0.051863
0.0510518
0.0655906
0.0515699
0.0653638
0.0500271
0.0469846
0.0470871
0.0652459
0.0501641
0.0504022
0.0661703
0.0517443
0.0805499
0.088941
0.0828241
0.0830314
0.0829382
0.0656695
0.0499249
0.0887336
0.0865205
0.0829635
0.0469555
0.0807586
0.088633
0.0822604
0.0809296
0.0648055
0.0646378
0.0889872
0.0859031
0.0547593
0.0466227
0.0564009
0.0886254
0.0723009
0.0887457
0.088653
0.0591092
0.0841346
0.0887562
0.0884776
0.0400825
0.0445759
0.0532084
0.0540876
0.0582766
0.0547295
0.0485258
0.0520361
0.0887524
0.063617
0.0833407
0.0456139
0.0407613
0.0439463
0.0652572
0.0887396
0.0886189
0.0471822
0.0496095
0.0433921
0.0862151
0.0880612
0.062889
0.0797802
0.0889907
0.085501
0.0678953
0.0618736
0.0448666
0.0620902
0.0579736
0.0610683
0.0555332
0.0582065
0.0582787
0.0416708
0.0425623
0.0886439
0.0887234
0.0791703
0.0890113
0.0585667
0.0625932
0.0561087
0.0780282
0.0838734
0.0635534
0.0887059
0.0797064
0.0859897
0.0856191
0.0449155
0.082606
0.0834903
0.0731641
0.0625616
0.0901191
0.0788177
0.0886924
0.0430071
0.080078
0.0896846
0.0793337
0.0605846
0.0434853
0.0875665
0.0886796
0.0894332
0.0730904
0.0710157
0.0459477
0.0886684
0.089748
0.0779582
0.0900182
0.0886579
0.062019
0.0886493
0.0897217
0.0833604
0.0886313
0.086083
0.0802418
0.0831997
0.0530803
0.0886367
0.0543773
0.0499436
0.0895302
)
;

boundaryField
{
    patch0
    {
        type            kqRWallFunction;
        value           nonuniform List<scalar> 
4010
(
0.0868239
0.0868239
0.0869005
0.0869005
0.0888642
0.0888642
0.0890018
0.0890018
0.0874431
0.0874431
0.0890287
0.0890287
0.089086
0.089086
0.0890797
0.0890797
0.0891135
0.0891135
0.088675
0.088675
0.0891185
0.0891185
0.0891559
0.0891559
0.0887122
0.0887122
0.0891384
0.0891384
0.0889125
0.0889125
0.0888681
0.0888681
0.0887793
0.0887793
0.0891998
0.0891998
0.0860138
0.0860138
0.0892087
0.0892087
0.086806
0.086806
0.0886518
0.0886518
0.0887159
0.0887159
0.0892985
0.0892985
0.0886487
0.0886487
0.0886466
0.0886466
0.0886529
0.0886529
0.0863499
0.0863499
0.0870069
0.0870069
0.0888664
0.0888664
0.0887327
0.0887327
0.0886467
0.0886467
0.0825533
0.0825533
0.0887733
0.0887733
0.0875941
0.0875941
0.0886853
0.0886853
0.0886507
0.0886507
0.0879105
0.0879105
0.0888227
0.0888227
0.0887597
0.0887597
0.0886506
0.0886506
0.0879789
0.0879789
0.0886468
0.0886468
0.0887266
0.0887266
0.0842069
0.0842069
0.0828484
0.0828484
0.0787916
0.0787916
0.0882475
0.0882475
0.0754893
0.0754893
0.0801274
0.0801274
0.0883226
0.0883226
0.0885687
0.0885687
0.0886539
0.0886539
0.0871557
0.0871557
0.0777019
0.0777019
0.0883812
0.0883812
0.082762
0.082762
0.0864102
0.0864102
0.0840292
0.0840292
0.0886529
0.0886529
0.0886985
0.0886985
0.0888587
0.0888587
0.0886651
0.0886651
0.0887984
0.0887984
0.0876155
0.0876155
0.0886223
0.0886223
0.0887225
0.0887225
0.0886765
0.0886765
0.0858567
0.0858567
0.0883748
0.0883748
0.0803867
0.0803867
0.0888208
0.0888208
0.0887574
0.0887574
0.0888946
0.0888946
0.0889049
0.0889049
0.080762
0.080762
0.0889889
0.0889889
0.0889276
0.0889276
0.0885911
0.0885911
0.0886234
0.0886234
0.0895501
0.0895501
0.0886553
0.0886553
0.0856289
0.0856289
0.086293
0.086293
0.085064
0.085064
0.0886604
0.0886604
0.0860445
0.0860445
0.0889432
0.0889432
0.0753007
0.0753007
0.0832222
0.0832222
0.0887373
0.0887373
0.0886481
0.0886481
0.0828413
0.0828413
0.086502
0.086502
0.086948
0.086948
0.0858545
0.0858545
0.0890679
0.0890679
0.0894645
0.0894645
0.0886583
0.0886583
0.0797278
0.0797278
0.0887233
0.0887233
0.0876586
0.0876586
0.0886753
0.0886753
0.0886517
0.0886517
0.0877022
0.0877022
0.088976
0.088976
0.0884901
0.0884901
0.0879839
0.0879839
0.0886404
0.0886404
0.0861301
0.0861301
0.0891214
0.0891214
0.0872704
0.0872704
0.0880212
0.0880212
0.0882636
0.0882636
0.0888703
0.0888703
0.0821815
0.0821815
0.0888309
0.0888309
0.0888353
0.0888353
0.0886154
0.0886154
0.0889938
0.0889938
0.0826392
0.0826392
0.0664154
0.0664154
0.0842767
0.0842767
0.0790428
0.0790428
0.0887418
0.0887418
0.0886322
0.0886322
0.0844576
0.0844576
0.088935
0.088935
0.0874177
0.0874177
0.0720395
0.0720395
0.0891159
0.0891159
0.0886855
0.0886855
0.0565849
0.0565849
0.087582
0.087582
0.0885007
0.0885007
0.0882906
0.0882906
0.0882845
0.0882845
0.0880924
0.0880924
0.089314
0.089314
0.088192
0.088192
0.0878004
0.0878004
0.0887994
0.0887994
0.0522205
0.0522205
0.0522205
0.045669
0.045669
0.045669
0.0888683
0.0888683
0.0823558
0.0823558
0.0884459
0.0884459
0.0835116
0.0835116
0.0886309
0.0886309
0.0886033
0.0886033
0.0831091
0.0831091
0.0649481
0.0649481
0.0649481
0.0868405
0.0868405
0.0887748
0.0887748
0.0889327
0.0889327
0.0887296
0.0887296
0.0681181
0.0681181
0.0885743
0.0885743
0.0891462
0.0891462
0.0730501
0.0730501
0.0886662
0.0886662
0.0743792
0.0743792
0.0888287
0.0888287
0.0655948
0.0655948
0.083628
0.083628
0.0885818
0.0885818
0.0887686
0.0887686
0.0682424
0.0682424
0.0890257
0.0890257
0.0882125
0.0882125
0.0840279
0.0840279
0.0889273
0.0889273
0.0889817
0.0889817
0.0886478
0.0886478
0.088425
0.088425
0.088759
0.088759
0.0888021
0.0888021
0.0612553
0.0612553
0.0886629
0.0886629
0.0888424
0.0888424
0.0887613
0.0887613
0.0888407
0.0888407
0.0889284
0.0889284
0.0887836
0.0887836
0.0719736
0.0719736
0.0808324
0.0808324
0.087857
0.087857
0.0887554
0.0887554
0.0890654
0.0890654
0.0887856
0.0887856
0.0886173
0.0886173
0.0889726
0.0889726
0.089132
0.089132
0.0888718
0.0888718
0.0887958
0.0887958
0.0642543
0.0642543
0.0642543
0.0887509
0.0887509
0.0887649
0.0887649
0.0887674
0.0887674
0.0887547
0.0887547
0.0657874
0.0657874
0.0845086
0.0845086
0.0887036
0.0887036
0.0889566
0.0889566
0.0865373
0.0865373
0.0887504
0.0887504
0.0888682
0.0888682
0.0884592
0.0884592
0.0866468
0.0866468
0.0495867
0.0495867
0.0495867
0.0644709
0.0644709
0.0885312
0.0885312
0.0892467
0.0892467
0.0887975
0.0887975
0.088743
0.088743
0.0889602
0.0889602
0.0886198
0.0886198
0.0887223
0.0887223
0.0888943
0.0888943
0.0889297
0.0889297
0.088755
0.088755
0.0843377
0.0843377
0.0887637
0.0887637
0.0891537
0.0891537
0.0890052
0.0890052
0.0887361
0.0887361
0.0891631
0.0891631
0.0890682
0.0890682
0.0888096
0.0888096
0.0887414
0.0887414
0.0596286
0.0596286
0.0886984
0.0886984
0.0887593
0.0887593
0.0639845
0.0639845
0.0887454
0.0887454
0.0460988
0.0460988
0.0460988
0.0893473
0.0893473
0.0888861
0.0888861
0.0887921
0.0887921
0.063074
0.063074
0.063074
0.0887964
0.0887964
0.0887291
0.0887291
0.0894809
0.0894809
0.0886596
0.0886596
0.0692498
0.0692498
0.0877555
0.0877555
0.0889836
0.0889836
0.0888625
0.0888625
0.0889424
0.0889424
0.0890145
0.0890145
0.0780228
0.0780228
0.0633222
0.0633222
0.0888086
0.0888086
0.0886918
0.0886918
0.0890593
0.0890593
0.0891326
0.0891326
0.0886441
0.0886441
0.088696
0.088696
0.0887706
0.0887706
0.0889128
0.0889128
0.088778
0.088778
0.0888021
0.0888021
0.0886413
0.0886413
0.0889623
0.0889623
0.0886459
0.0886459
0.0888653
0.0888653
0.0876741
0.0876741
0.0889651
0.0889651
0.0801751
0.0801751
0.0600738
0.0600738
0.0887222
0.0887222
0.0859042
0.0859042
0.0796093
0.0796093
0.0886862
0.0886862
0.0886778
0.0886778
0.0900022
0.0900022
0.0890286
0.0890286
0.0887278
0.0887278
0.088768
0.088768
0.0887415
0.0887415
0.0670599
0.0670599
0.0625843
0.0625843
0.0625843
0.0887203
0.0887203
0.0888227
0.0888227
0.0850296
0.0850296
0.0888832
0.0888832
0.0891673
0.0891673
0.0669579
0.0669579
0.0889031
0.0889031
0.0887156
0.0887156
0.0888148
0.0888148
0.088755
0.088755
0.0887369
0.0887369
0.0892871
0.0892871
0.0778513
0.0778513
0.0859421
0.0859421
0.0890467
0.0890467
0.088757
0.088757
0.0889423
0.0889423
0.0891764
0.0891764
0.0676842
0.0676842
0.0676842
0.0887995
0.0887995
0.0895722
0.0895722
0.0886073
0.0886073
0.0890063
0.0890063
0.0886774
0.0886774
0.0881484
0.0881484
0.089722
0.089722
0.0886844
0.0886844
0.0864776
0.0864776
0.0884298
0.0884298
0.0885944
0.0885944
0.0888181
0.0888181
0.0886458
0.0886458
0.0890884
0.0890884
0.0885293
0.0885293
0.0887752
0.0887752
0.0889351
0.0889351
0.0888187
0.0888187
0.0887818
0.0887818
0.0887898
0.0887898
0.088708
0.088708
0.0888227
0.0888227
0.0880602
0.0880602
0.088666
0.088666
0.0893793
0.0893793
0.088719
0.088719
0.0886751
0.0886751
0.0889808
0.0889808
0.0892264
0.0892264
0.0887275
0.0887275
0.0886878
0.0886878
0.0886396
0.0886396
0.0890771
0.0890771
0.0888834
0.0888834
0.088717
0.088717
0.0886572
0.0886572
0.0888307
0.0888307
0.088834
0.088834
0.0888276
0.0888276
0.0891986
0.0891986
0.0879348
0.0879348
0.0886472
0.0886472
0.0887665
0.0887665
0.0890023
0.0890023
0.0888032
0.0888032
0.0605004
0.0605004
0.0887187
0.0887187
0.0885833
0.0885833
0.0886636
0.0886636
0.0886455
0.0886455
0.0664847
0.0664847
0.0681678
0.0681678
0.0893181
0.0893181
0.0886666
0.0886666
0.0890379
0.0890379
0.0699407
0.0699407
0.0889255
0.0889255
0.0886701
0.0886701
0.0837552
0.0837552
0.0887241
0.0887241
0.0890991
0.0890991
0.0894402
0.0894402
0.0886635
0.0886635
0.0886457
0.0886457
0.0888438
0.0888438
0.0886444
0.0886444
0.0886913
0.0886913
0.0888226
0.0888226
0.0888343
0.0888343
0.0897868
0.0897868
0.0887755
0.0887755
0.0886594
0.0886594
0.0887983
0.0887983
0.0886422
0.0886422
0.0592664
0.0592664
0.0890228
0.0890228
0.0889348
0.0889348
0.0886458
0.0886458
0.0887345
0.0887345
0.0887733
0.0887733
0.0889853
0.0889853
0.0887053
0.0887053
0.0887859
0.0887859
0.088708
0.088708
0.0899651
0.0899651
0.0888273
0.0888273
0.088665
0.088665
0.0886429
0.0886429
0.0888444
0.0888444
0.0667442
0.0667442
0.0886305
0.0886305
0.08871
0.08871
0.0886703
0.0886703
0.0888495
0.0888495
0.0426734
0.0426734
0.0426734
0.0886436
0.0886436
0.0886446
0.0886446
0.0892701
0.0892701
0.0888041
0.0888041
0.0861002
0.0861002
0.0889049
0.0889049
0.0887585
0.0887585
0.0843433
0.0843433
0.0579229
0.0579229
0.0579229
0.0886426
0.0886426
0.0904347
0.0904347
0.0886801
0.0886801
0.0886597
0.0886597
0.0886435
0.0886435
0.0887035
0.0887035
0.0886237
0.0886237
0.0889573
0.0889573
0.0888596
0.0888596
0.0888368
0.0888368
0.0885956
0.0885956
0.0901781
0.0901781
0.0891126
0.0891126
0.0886388
0.0886388
0.0890576
0.0890576
0.089197
0.089197
0.0886801
0.0886801
0.0904485
0.0904485
0.0887635
0.0887635
0.0886424
0.0886424
0.0894614
0.0894614
0.0890893
0.0890893
0.0883651
0.0883651
0.0886336
0.0886336
0.088637
0.088637
0.0886428
0.0886428
0.0897937
0.0897937
0.088638
0.088638
0.0886097
0.0886097
0.0888538
0.0888538
0.0886373
0.0886373
0.0896088
0.0896088
0.0863826
0.0863826
0.0888602
0.0888602
0.0886417
0.0886417
0.088695
0.088695
0.0886388
0.0886388
0.0887767
0.0887767
0.0828215
0.0828215
0.0886911
0.0886911
0.0579215
0.0579215
0.0579215
0.0887076
0.0887076
0.0888379
0.0888379
0.0886959
0.0886959
0.0886424
0.0886424
0.0888909
0.0888909
0.0886272
0.0886272
0.0887892
0.0887892
0.0893723
0.0893723
0.0886391
0.0886391
0.0887011
0.0887011
0.0899999
0.0899999
0.0889592
0.0889592
0.0886029
0.0886029
0.0887476
0.0887476
0.0893361
0.0893361
0.0886335
0.0886335
0.0886679
0.0886679
0.0886008
0.0886008
0.0887427
0.0887427
0.0886444
0.0886444
0.0886537
0.0886537
0.0888168
0.0888168
0.0888722
0.0888722
0.0879951
0.0879951
0.0886369
0.0886369
0.0886124
0.0886124
0.088461
0.088461
0.090196
0.090196
0.0886681
0.0886681
0.0891641
0.0891641
0.0883404
0.0883404
0.0889285
0.0889285
0.08869
0.08869
0.0887679
0.0887679
0.0886923
0.0886923
0.0888662
0.0888662
0.0886292
0.0886292
0.0886589
0.0886589
0.0886284
0.0886284
0.0886356
0.0886356
0.0886305
0.0886305
0.0887483
0.0887483
0.08863
0.08863
0.0891405
0.0891405
0.0875823
0.0875823
0.0886299
0.0886299
0.0886063
0.0886063
0.089078
0.089078
0.0892069
0.0892069
0.0907132
0.0907132
0.0887155
0.0887155
0.0886264
0.0886264
0.0886309
0.0886309
0.088442
0.088442
0.0893139
0.0893139
0.088902
0.088902
0.0886797
0.0886797
0.0886296
0.0886296
0.0887829
0.0887829
0.0885844
0.0885844
0.089026