/*--------------------------------*- C++ -*----------------------------------*\
  =========                 |
  \\      /  F ield         | OpenFOAM: The Open Source CFD Toolbox
   \\    /   O peration     | Website:  https://openfoam.org
    \\  /    A nd           | Version:  8
     \\/     M anipulation  |
\*---------------------------------------------------------------------------*/
FoamFile
{
    version     2.0;
    format      ascii;
    class       volScalarField;
    location    "0.05";
    object      nut;
}
// * * * * * * * * * * * * * * * * * * * * * * * * * * * * * * * * * * * * * //

dimensions      [0 2 -1 0 0 0 0];

internalField   nonuniform List<scalar> 
1924
(
0.00324942
0.00324737
0.00330593
0.00330903
0.00326507
0.00331062
0.00331183
0.00331209
0.00331242
0.00329998
0.0033128
0.00331341
0.00330122
0.00331343
0.00330786
0.00330681
0.00330403
0.0033147
0.00322644
0.00331505
0.00324044
0.00330141
0.00330298
0.00331651
0.0033013
0.00330127
0.00330149
0.00323644
0.00325724
0.00330667
0.00330345
0.00330127
0.00316069
0.00330429
0.00326887
0.00330222
0.00330142
0.00327962
0.00330524
0.00330411
0.00330142
0.00327604
0.00330128
0.00330313
0.00321474
0.0031579
0.00307536
0.00329389
0.00295514
0.00306697
0.00329094
0.00329577
0.00330145
0.00325938
0.00303
0.00329088
0.00314712
0.00325812
0.00321251
0.00330138
0.00330233
0.00330653
0.00330094
0.0033046
0.00327128
0.00330112
0.00330323
0.00330202
0.00322875
0.00329187
0.00309259
0.00330565
0.00330331
0.00330747
0.00330773
0.003104
0.00330954
0.0033084
0.00330142
0.00329982
0.00332438
0.00330154
0.00324043
0.00322971
0.00321247
0.0033016
0.0032461
0.00330848
0.00295769
0.00315505
0.00330362
0.00330131
0.00315251
0.00323942
0.00325029
0.00322591
0.00331112
0.00332224
0.00330155
0.00307947
0.00330249
0.00326852
0.003302
0.0033014
0.00327164
0.00330981
0.00329535
0.00327964
0.00330105
0.00323107
0.0033125
0.00326218
0.00328149
0.00329282
0.00330729
0.00312574
0.00330568
0.00330608
0.0033004
0.00330999
0.00315955
0.00105965
0.00317
0.0030571
0.00330371
0.00329938
0.0031897
0.0033086
0.00326505
0.00103554
0.00331276
0.00330133
0.000297069
0.0032796
0.00329411
0.00328879
0.0032897
0.0032843
0.00331675
0.0032863
0.00328428
0.00330511
0.000229736
0.000212532
0.00330695
0.00316291
0.0032934
0.0031659
0.00330082
0.00330009
0.00318214
0.000525714
0.00324946
0.00330417
0.00330867
0.00330272
0.00107178
0.00329799
0.00331327
0.000349292
0.00330193
0.00294979
0.00330588
0.0010516
0.00318804
0.00329778
0.00330415
0.000815694
0.00331086
0.00328682
0.00318988
0.00330861
0.00331003
0.00330127
0.00329451
0.00330378
0.00330504
0.000612621
0.00330164
0.00330637
0.00330426
0.00330619
0.00330842
0.00330475
0.00288333
0.00310881
0.00327657
0.00330414
0.00331183
0.00330489
0.00329883
0.0033097
0.0033133
0.00330717
0.00330516
0.000521235
0.00330404
0.00330417
0.00330432
0.00330403
0.000608503
0.00318363
0.00330182
0.00330929
0.00324746
0.00330401
0.00330706
0.0032939
0.0032438
0.000210997
0.00103775
0.00329638
0.00331529
0.00330523
0.00330384
0.00330933
0.00330055
0.0033024
0.00330769
0.00330842
0.00330363
0.003219
0.00330397
0.00331326
0.00331037
0.00330368
0.00331388
0.00331277
0.00330555
0.00330374
0.000430751
0.00330258
0.00330418
0.000554371
0.00330391
0.000204481
0.00331736
0.00330747
0.00330496
0.000516321
0.00330512
0.00330347
0.00331997
0.0033002
0.000475018
0.00327299
0.00330989
0.00330482
0.0033088
0.00331111
0.00309488
0.000886739
0.00330552
0.00330145
0.00331182
0.00331289
0.00330117
0.00330264
0.00330431
0.00330808
0.00330463
0.00330535
0.00330108
0.00330936
0.00330121
0.00330644
0.00326814
0.00330953
0.00308551
0.000576468
0.00330327
0.0032383
0.00309545
0.00330239
0.00330209
0.00333225
0.0033109
0.00330348
0.00330398
0.00330376
0.00070376
0.000370995
0.0033032
0.00330586
0.00320985
0.00330723
0.00331446
0.000900245
0.00330777
0.00330314
0.0033057
0.00330311
0.00330369
0.00331627
0.00302694
0.00323577
0.00331092
0.00330359
0.00330881
0.00331383
0.000521613
0.00330512
0.0033217
0.00330027
0.00331031
0.00330216
0.00328315
0.00332419
0.00330234
0.00326053
0.00329266
0.00329986
0.00330574
0.00330116
0.00331258
0.00329527
0.00330462
0.00330843
0.00330582
0.00330482
0.00330417
0.00330292
0.00330585
0.00328593
0.00330185
0.00332104
0.00330323
0.0033021
0.00330747
0.00331581
0.00330342
0.00330235
0.003301
0.00331191
0.00330694
0.00330319
0.00330151
0.0033061
0.00330612
0.00330602
0.0033165
0.00328413
0.00330118
0.00330414
0.00330998
0.00330526
0.000400681
0.00330309
0.00329956
0.0033018
0.00330119
0.000435992
0.000659145
0.00331688
0.00329997
0.0033119
0.00282536
0.0033081
0.00330195
0.00317739
0.00330334
0.00331222
0.00331929
0.00330173
0.00330118
0.00330643
0.0033011
0.00330249
0.00330583
0.00330618
0.00332544
0.00330467
0.00330167
0.00330513
0.00330112
0.00059862
0.00331042
0.00330838
0.00330114
0.00330341
0.00330442
0.00331024
0.00330289
0.00330493
0.00330293
0.00332808
0.00330527
0.00330177
0.00330112
0.00330644
0.000574208
0.00330076
0.00330301
0.00330193
0.00330652
0.000163352
0.00330111
0.0033011
0.00331722
0.00330532
0.00324023
0.00330765
0.00330412
0.00318405
0.0002596
0.00330116
0.00333504
0.00330214
0.00330166
0.0033011
0.00330281
0.00330059
0.00330878
0.0033068
0.00330616
0.00329997
0.00333607
0.00331247
0.00330104
0.00331009
0.00331431
0.00330219
0.00333674
0.0033036
0.00330106
0.00331967
0.00331284
0.0032916
0.00330083
0.00330097
0.00330119
0.00332988
0.00330099
0.00330024
0.0033066
0.00330098
0.0033224
0.00323453
0.00330677
0.00330103
0.0033026
0.00330099
0.0033047
0.00316736
0.00330238
0.000202872
0.00330289
0.00330559
0.00330266
0.00330123
0.00330739
0.00330068
0.00330501
0.003319
0.00330099
0.00330279
0.00332956
0.00330895
0.00330007
0.00330391
0.00331999
0.00330082
0.00330034
0.00330002
0.00330376
0.00330129
0.0033015
0.00330565
0.00330701
0.00328952
0.00330092
0.00330032
0.00329457
0.00333299
0.00330185
0.00331555
0.00329105
0.00330805
0.00330235
0.00330447
0.00330245
0.00330688
0.00330081
0.00330159
0.0033007
0.00330089
0.0033008
0.00330388
0.00330079
0.00331428
0.00326737
0.00330079
0.00330016
0.00331054
0.00331457
0.00333788
0.00330305
0.0033008
0.0033008
0.00329507
0.0033168
0.00330762
0.0033022
0.00330074
0.0033045
0.0032997
0.00331049
0.00330075
0.00330036
0.00332318
0.00331026
0.003342
0.0033008
0.00330467
0.00330086
0.00330095
0.00330065
0.0033024
0.00330697
0.00330383
0.00329986
0.0033091
0.00333583
0.00332635
0.00330498
0.00330253
0.00329532
0.00330178
0.00330072
0.00330588
0.00329979
0.00330853
0.00330021
0.00330106
0.00330333
0.003301
0.00330672
0.00330166
0.00330313
0.00330058
0.00330035
0.00330334
0.00330056
0.00330727
0.0033339
0.00330056
0.00327947
0.00330211
0.00330147
0.00332187
0.00330056
0.00330051
0.00330429
0.00329989
0.00330052
0.00330083
0.00330156
0.00329588
0.00328317
0.00327915
0.00330051
0.00329972
0.00322142
0.00330049
0.00330195
0.00330146
0.00332934
0.00330988
0.00328345
0.00330022
0.00333706
0.00330055
0.0033005
0.00330047
0.0032964
0.00330056
0.00330106
0.00330431
0.00331725
0.0033005
0.00330028
0.00330251
0.00330724
0.00330049
0.00327287
0.00330104
0.00331223
0.00329931
0.00334529
0.00329557
0.00330038
0.00329977
0.000698072
0.00328798
0.00329893
0.00331992
0.00330058
0.0033117
0.00330097
0.00329961
0.0031454
0.00331064
0.00330505
0.00329045
0.00329991
0.0033079
0.00330211
0.00331921
0.00330166
0.00329902
0.00330033
0.0033062
0.00330084
0.00331573
0.00330017
0.0033014
0.00330449
0.00330291
0.00321913
0.00330373
0.00332656
0.00334513
0.00331026
0.00330015
0.00330693
0.00328443
0.00330092
0.00330187
0.00330223
0.00330043
0.00330302
0.00330026
0.00331265
0.00329951
0.00329979
0.00314307
0.00330025
0.00322598
0.00330029
0.00332938
0.00330024
0.00330019
0.0032999
0.00330016
0.00329944
0.00330738
0.00330007
0.00330381
0.00330028
0.00330169
0.00329949
0.00330018
0.0032969
0.00330474
0.00330072
0.0033002
0.00329941
0.00331305
0.00330012
0.00330029
0.00330087
0.00330037
0.00328599
0.00333607
0.00330023
0.00327787
0.00329998
0.00330249
0.00329953
0.00329978
0.00329984
0.0033377
0.00328385
0.00331837
0.00330622
0.00333977
0.00330704
0.00330333
0.00329746
0.00330035
0.00331438
0.00331247
0.0033008
0.0033005
0.00329992
0.00330656
0.00330022
0.0032988
0.00331985
0.00330041
0.00330383
0.00330489
0.0033102
0.00329992
0.00329935
0.00330875
0.00330019
0.00329904
0.00329975
0.00329975
0.00334766
0.00329922
0.00329998
0.00330402
0.00327825
0.00329998
0.00329995
0.0032999
0.00332226
0.00329954
0.00329941
0.00329899
0.00329993
0.00330077
0.00329979
0.00330191
0.00329992
0.00329925
0.00330741
0.00314537
0.00328744
0.00330152
0.00332909
0.0033002
0.00330282
0.00057131
0.000285057
0.00316118
0.00330245
0.00332683
0.00329993
0.00329993
0.00330355
0.00329967
0.00330045
0.00329975
0.00330019
0.00329999
0.00330071
0.00329916
0.00328931
0.00329994
0.00334813
0.000609489
0.00331197
0.000630523
0.00329952
0.00330006
0.00329943
0.00332874
0.00329961
0.00329921
0.00330725
0.00329192
0.00330207
0.00330408
0.00321477
0.00322677
0.00325913
0.00330105
0.00322471
0.00329994
0.00330264
0.00332781
0.00329956
0.00329979
0.00329959
0.00329948
0.00329976
0.00329968
0.00330192
0.00329966
0.00329418
0.00329967
0.00330349
0.00331429
0.00329942
0.00329956
0.00329978
0.00329969
0.00329898
0.00330939
0.00330666
0.00326249
0.00331447
0.00322492
0.00330311
0.00329971
0.0033088
0.00330431
0.00329969
0.00329905
0.0033103
0.00329967
0.0032994
0.00333184
0.00331617
0.00310737
0.0032997
0.00329913
0.0032967
0.00330213
0.00329946
0.00321266
0.00333313
0.00330475
0.0032801
0.00330153
0.00329968
0.00329939
0.00322682
0.00331984
0.00330295
0.000620098
0.00329918
0.00329963
0.00330022
0.00329714
0.00329941
0.00330055
0.00329887
0.00330418
0.00330584
0.00329854
0.00329985
0.00332073
0.00329933
0.00330001
0.00329968
0.00329953
0.00330208
0.00334507
0.00329919
0.00329938
0.00329929
0.00329936
0.00329385
0.00330002
0.00331383
0.000244961
0.00331263
0.000679671
0.00329942
0.00329928
0.00285782
0.00329884
0.00329943
0.00329924
0.00330073
0.00329894
0.00330696
0.00329966
0.00329923
0.00331542
0.00330176
0.00329944
0.00329875
0.00329918
0.00327816
0.00322699
0.00329991
0.00330472
0.00329943
0.00316901
0.00329868
0.00329943
0.00328916
0.00329925
0.00329928
0.00329936
0.00331216
0.003299
0.00329848
0.00330558
0.00329914
0.00315392
0.00334514
0.00329877
0.000713318
0.00329945
0.00321142
0.00329902
0.00330033
0.00316824
0.00329897
0.00329916
0.00329944
0.00331509
0.00329963
0.00329979
0.00329907
0.00330974
0.000656787
0.00330261
0.00331004
0.00331149
0.00331431
0.00330111
0.00329857
0.0033022
0.00329918
0.00317503
0.00329902
0.00316015
0.00329909
0.00329912
0.0033071
0.00329676
0.00329916
0.00330585
0.00329915
0.00315233
0.00331477
0.000212713
0.0032266
0.00329944
0.00329813
0.00329907
0.00329899
0.00323984
0.00316861
0.00330184
0.00329898
0.00329787
0.00330606
0.00329912
0.00331955
0.00330344
0.00330718
0.00329919
0.00329893
0.0033008
0.00329901
0.00329819
0.00329921
0.00330314
0.00329995
0.00329824
0.00329919
0.00329944
0.00329475
0.000345219
0.00329918
0.00319419
0.00070255
0.0032992
0.00329885
0.00329921
0.0032988
0.00330123
0.00329802
0.00329898
0.000295835
0.00329828
0.00329964
0.000297766
0.00329838
0.000281598
0.00329887
0.00330022
0.00328347
0.00326367
0.00329829
0.00331153
0.00327801
0.00329922
0.00330347
0.00329886
0.0032989
0.00328901
0.00333758
0.00329827
0.00317871
0.00329889
0.00330201
0.00314562
0.00329877
0.00329894
0.00329952
0.00328334
0.003301
0.00329895
0.00329781
0.00329823
0.00329884
0.00329939
0.00329874
0.00327853
0.00322093
0.00329709
0.00330132
0.00329923
0.00327149
0.00329817
0.00329712
0.00321258
0.00329703
0.00329963
0.00329979
0.00329881
0.00329882
0.00329643
0.00329701
0.00330005
0.00329713
0.00330255
0.00330122
0.00331703
0.00330997
0.00328937
0.00329808
0.00329778
0.00330051
0.00329899
0.00331053
0.0033049
0.00329899
0.00329897
0.00329713
0.00329873
0.00330688
0.00330175
0.00330802
0.000376567
0.00332055
0.00329673
0.00329901
0.00329708
0.00329922
0.00329384
0.00330481
0.00316337
0.00329676
0.00329335
0.00329947
0.00315971
0.00322688
0.00329702
0.00331835
0.00330406
0.00329862
0.00329762
0.00330102
0.00330998
0.00329935
0.00330029
0.00329867
0.00323658
0.00329871
0.00329871
0.00329902
0.00329693
0.00330456
0.00329844
0.00329797
0.00331863
0.00331243
0.00329866
0.00330354
0.00329921
0.00329095
0.00329874
0.00329656
0.00329087
0.00316321
0.00329852
0.00329496
0.00330131
0.00329858
0.00322598
0.00327792
0.00330061
0.0032889
0.00329683
0.00329082
0.00329875
0.00329903
0.000702509
0.00329992
0.00329076
0.00329848
0.000701382
0.00329879
0.00329067
0.00319163
0.00329726
0.00329115
0.00321609
0.00329877
0.00330043
0.00329855
0.00329058
0.00329972
0.000704879
0.000699872
0.00329785
0.0032988
0.003301
0.00331528
0.00329904
0.00329614
0.00328122
0.00329049
0.00329116
0.000720019
0.0032985
0.00301316
0.0032907
0.00329852
0.00329939
0.00329849
0.00329747
0.00329925
0.000245698
0.000239118
0.00331074
0.00329812
0.00329672
0.00330682
0.00328115
0.00329842
0.00329853
0.00329633
0.00330005
0.00330729
0.0033047
0.00329531
0.00329883
0.00328109
0.0006894
0.00321416
0.0032997
0.00329914
0.00330056
0.00328096
0.0032814
0.00329833
0.00329812
0.00325109
0.00322734
0.00328083
0.00329983
0.000284241
0.00315974
0.00329054
0.00329039
0.00070548
0.00329772
0.0032807
0.000699793
0.000645092
0.00329884
0.0031884
0.00330044
0.00329948
0.00330119
0.00330546
0.00329811
0.003299
0.00330294
0.00329858
0.00329855
0.000308692
0.000740778
0.00329659
0.000656026
0.00327787
0.00329859
0.00312875
0.00328058
0.00330452
0.00328173
0.00328133
0.0032888
0.00331005
0.00329933
0.00329863
0.00321394
0.00330317
0.00329916
0.00329904
0.00328106
0.0033001
0.00328227
0.00329837
0.00323427
0.000702963
0.00329029
0.00329832
0.00329826
0.000835143
0.00323394
0.00329832
0.00315417
0.000696245
0.00329898
0.00319346
0.00329817
0.00323365
0.00329021
0.00329892
0.00330049
0.00329864
0.00323492
0.00329883
0.00323338
0.00329758
0.00328519
0.00310812
0.00329885
0.00323318
0.00330177
0.00329585
0.00329989
0.00330127
0.00322672
0.00329904
0.00328045
0.00330351
0.000278787
0.000264333
0.00329834
0.00329645
0.00323305
0.00329505
0.00330034
0.0032971
0.00328084
0.00306005
0.000816945
0.0033004
0.00329019
0.00329835
0.00330505
0.00329776
0.00329761
0.00329783
0.00323723
0.00329877
0.0031695
0.00330257
0.00329862
0.00329865
0.00322786
0.00315991
0.00330005
0.00323297
0.00329842
0.00316918
0.000290844
0.00329838
0.00316898
0.00329759
0.0031686
0.00329837
0.000723213
0.00327182
0.00327326
0.000864145
0.00329843
0.00329848
0.00316824
0.000308499
0.00328594
0.00328033
0.00328787
0.00323569
0.00316795
0.00317056
0.00330477
0.0032981
0.00321902
0.00327777
0.00323571
0.00308776
0.00329743
0.00329987
0.00329801
0.00323847
0.00328857
0.00307299
0.00329825
0.00329127
0.000703635
0.00329747
0.000791866
0.00329815
0.00329906
0.00329845
0.00329631
0.00329147
0.0031677
0.00329733
0.00324306
0.00329859
0.00327983
0.00329122
0.00329788
0.00329818
0.00323293
0.000328014
0.00329816
0.00329008
0.00319695
0.0033006
0.00329137
0.0030289
0.00329722
0.000329185
0.0031744
0.00329128
0.00331073
0.000334805
0.00300378
0.00328021
0.00330019
0.00330703
0.00323564
0.00328224
0.0032984
0.000566738
0.00328155
0.00329122
0.00328216
0.0031675
0.00329821
0.00032685
0.00328155
0.00330239
0.00317093
0.0032981
0.00330031
0.00317156
0.00329823
0.00329817
0.00329528
0.00328447
0.00329499
0.00329992
0.000314772
0.000328945
0.00329084
0.00317854
0.00323663
0.00030791
0.00329825
0.00328182
0.000626762
0.00329709
0.00323293
0.00328159
0.00330345
0.000525029
0.00033735
0.00323533
0.00329137
0.000766462
0.00026233
0.000266742
0.0032282
0.00328531
0.00317314
0.00316014
0.00329728
0.00329901
0.00329785
0.00329116
0.00329787
0.0032982
0.00030416
0.00329802
0.000311827
0.000324575
0.00329976
0.00328174
0.00323889
0.000374137
0.00329794
0.00317111
0.00329616
0.000718148
0.00323354
0.00071759
0.00329793
0.000704441
0.00329221
0.00320821
0.000717194
0.00330101
0.000720356
0.00328179
0.00328998
0.000705805
0.000716928
0.00323477
0.000716859
0.00325746
0.000620235
0.000716898
0.00316733
0.00323472
0.00317068
0.00317769
0.000469538
0.000394906
0.000717011
0.00329799
0.00327696
0.00329694
0.00329799
0.0032349
0.00328009
0.00323319
0.00329775
0.00330127
0.00329804
0.000719662
0.0032331
0.00314271
0.00329109
0.00328813
0.00329803
0.00328668
0.00330339
0.000307241
0.00318819
0.000717195
0.00330258
0.00330348
0.00329799
0.00323296
0.00328174
0.00317037
0.00323517
0.00329676
0.000393681
0.00327158
0.00329138
0.0032155
0.000717778
0.00310993
0.00317117
0.00323351
0.00328187
0.00329755
0.000719924
0.00329784
0.00329713
0.000720006
0.00329099
0.00330049
0.00075817
0.0031729
0.0032995
0.00329776
0.000717441
0.00316943
0.00329778
0.00329601
0.000720866
0.00329784
0.00316719
0.0031698
0.00329657
0.000328801
0.00329783
0.00295204
0.00329769
0.00329981
0.00329779
0.00316974
0.00327254
0.00329887
0.00321516
0.00329961
0.00316306
0.00328166
0.00033559
0.000735395
0.000716268
0.00038465
0.00328987
0.000724773
0.00329765
0.00323546
0.0031754
0.000705302
0.000306519
0.00309054
0.00329736
0.00330146
0.00330306
0.00326592
0.00327385
0.00328867
0.000721927
0.00329088
0.00315964
0.00329716
0.00329763
0.00317136
0.0032976
0.00327998
0.00322662
0.00318156
0.000717743
0.00329638
0.00329754
0.00321088
0.00329698
0.00319334
0.00031405
0.00323369
0.00070428
0.000314172
0.00329074
0.000314279
0.00329618
0.00329124
0.000314315
0.00328156
0.000717377
0.000314289
0.00329697
0.00321551
0.000723067
0.000314205
0.000314067
0.00329586
0.00330104
0.003296
0.0032818
0.00323302
0.00329738
0.00316998
0.00330406
0.000258058
0.00025458
0.000313881
0.00328977
0.00323574
0.0032906
0.000714176
0.00329736
0.00072478
0.000715209
0.00329683
0.00329046
0.000714057
0.000722787
0.0032693
0.00313297
0.00031365
0.000714178
0.00328143
0.000305772
0.00313483
0.00329668
0.00329031
0.0032746
0.00329571
0.000313827
0.000313407
0.0031715
0.00328129
0.000312962
0.00329754
0.000718092
0.00329578
0.00316707
0.000329609
0.000306434
0.000313171
0.000718068
0.00327062
0.00312115
0.00329867
0.00328099
0.00328114
0.00330093
0.00313611
0.00328966
0.00329988
0.00329659
0.000312448
0.00330014
0.0032165
0.00327987
0.000710836
0.00329877
0.000313382
0.00329952
0.00328564
0.000322659
0.000705476
0.00328874
0.00329554
0.00329003
0.00323654
0.000315281
0.00323638
0.000325428
0.000706162
0.000683102
0.00328079
0.00329849
0.00329095
0.00328954
0.0033003
0.00323667
0.000713953
0.00327975
0.000357987
0.000337176
0.00305911
0.000311816
0.00323599
0.000706642
0.00329498
0.00330188
0.00323312
0.0032814
0.0032362
0.00323351
0.00310679
0.0032996
0.00031308
0.000310943
0.00329485
0.000316548
0.000304997
0.00329841
0.00317162
0.00317165
0.000319218
0.00328932
0.000314907
0.000718782
0.00329727
0.00330135
0.000316424
0.000708691
0.00327963
0.000316351
0.00330164
0.00323661
0.000320005
0.00328807
0.00316998
0.00327988
0.000703376
0.00323322
0.00329977
0.000306233
0.000305027
0.00329702
0.00308971
0.00317161
0.00329833
0.00327529
0.00329778
0.00317151
0.00317166
0.000316786
0.0032886
0.00329055
0.00327947
0.00329893
0.00328758
0.00313878
0.000724706
0.00032024
0.00323466
0.00330029
0.003219
0.00315304
0.00330415
0.000721678
0.000314441
0.00329011
0.00323289
0.00072237
0.00329683
0.00071849
0.000312746
0.00317076
0.00327197
0.00327867
0.00323332
0.000320762
0.000318634
0.00316701
0.000711557
0.000720972
0.000723048
0.00321788
0.00321116
0.00327137
0.00328961
0.00323342
0.000705945
0.000316624
0.00328076
0.003164
0.00327576
0.000713551
0.000316969
0.00327989
0.00329619
0.00317166
0.00328661
0.00316688
0.00322096
0.00329595
0.000723665
0.000316083
0.00323338
0.000692975
0.00316696
0.000311626
0.00314542
0.000312218
0.000719521
0.000313932
0.00328735
0.000321696
0.00327898
0.000715857
0.00323163
0.00316907
0.000311039
0.000723665
0.0032159
0.000719408
0.00071991
0.000311591
0.00323182
0.000304151
0.00323041
0.000310455
0.00311623
0.00327739
0.00314732
0.000312844
0.000316873
0.000713388
0.000713517
0.000720254
0.00071971
0.000312807
0.000309838
0.00320612
0.00322898
0.00326815
0.00316682
0.0003099
0.000308613
0.000716324
0.00311453
0.00322598
0.00320826
0.00316673
0.00316708
0.00326803
0.00316604
0.000308897
0.000723324
0.00315983
0.000323463
0.000717607
0.000310615
0.000716284
0.00310532
0.00314947
0.00031102
0.000668255
0.000301068
0.000299568
0.000683892
0.000310667
0.000310693
0.000721033
0.000313383
0.000720453
0.000311154
0.000311997
0.000721594
0.000310207
0.000312382
0.000718932
0.000714739
0.000314267
0.000317013
0.000312633
0.000716086
0.000315529
0.000713881
0.000307529
0.000295494
0.000296009
0.000714669
0.000308526
0.000309656
0.000721626
0.000316419
0.0031015
0.0033088
0.00315789
0.00316418
0.00316117
0.000706445
0.00030268
0.00330274
0.00324184
0.00317038
0.000293248
0.00310795
0.00330085
0.00313823
0.00311234
0.000703043
0.000654719
0.00330997
0.00323402
0.000292986
0.000290133
0.000298533
0.00330064
0.0028769
0.00330313
0.0033014
0.000307471
0.00317971
0.00330405
0.00329583
0.000216605
0.000232191
0.000289905
0.00028733
0.000325905
0.000290927
0.000272636
0.000277789
0.00330336
0.000632009
0.00318156
0.000240192
0.000224641
0.0002358
0.000643708
0.00330369
0.00330048
0.000261788
0.000191892
0.000178088
0.00324319
0.00328597
0.000481524
0.00307161
0.00331013
0.00321492
0.00278264
0.000654938
0.000265297
0.000762561
0.000600575
0.000782775
0.000567629
0.00059988
0.000597453
0.000212983
0.000214199
0.00330008
0.0033033
0.0030653
0.00331069
0.000351533
0.0005741
0.00043968
0.0030425
0.00316437
0.000597227
0.00330285
0.00308301
0.0032204
0.00321762
0.000269271
0.00312593
0.00316747
0.00291514
0.000625993
0.0033311
0.00304543
0.0033025
0.000247786
0.0030923
0.00332307
0.00307352
0.000455544
0.00024901
0.00326878
0.00330214
0.00331887
0.00290404
0.0028572
0.0002431
0.00330184
0.00332694
0.00301366
0.00332753
0.00330154
0.000624414
0.00330131
0.00332392
0.00316011
0.00330082
0.00322879
0.00308642
0.00315848
0.000196214
0.00330097
0.000509954
0.000240518
0.00332053
)
;

boundaryField
{
    patch0
    {
        type            nutkWallFunction;
        Cmu             0.09;
        kappa           0.41;
        E               9.8;
        value           nonuniform List<scalar> 
4010
(
0.000370646
0.000370646
0.000370797
0.000370797
0.000374622
0.000374622
0.000374774
0.000374774
0.000371856
0.000371856
0.000374934
0.000374934
0.000375024
0.000375024
0.000375038
0.000375038
0.000375096
0.000375096
0.000374255
0.000374255
0.000375114
0.000375114
0.000375186
0.000375186
0.000374328
0.000374328
0.000375153
0.000375153
0.000374716
0.000374716
0.00037463
0.00037463
0.000374458
0.000374458
0.000375271
0.000375271
0.000369054
0.000369054
0.000375289
0.000375289
0.000370611
0.000370611
0.000374211
0.000374211
0.000374335
0.000374335
0.000375462
0.000375462
0.000374205
0.000374205
0.000374201
0.000374201
0.000374213
0.000374213
0.000369588
0.000369588
0.000371005
0.000371005
0.000295479
0.000295479
0.000374368
0.000374368
0.000374201
0.000374201
0.000362155
0.000362155
0.000374446
0.000374446
0.000372149
0.000372149
0.000374276
0.000374276
0.000374208
0.000374208
0.00037277
0.00037277
0.000295413
0.000295413
0.00037442
0.00037442
0.000374208
0.000374208
0.000372903
0.000372903
0.000374201
0.000374201
0.000374356
0.000374356
0.000288688
0.000288688
0.00036275
0.00036275
0.000354392
0.000354392
0.000294996
0.000294996
0.00034756
0.00034756
0.000357223
0.000357223
0.000373572
0.000373572
0.00037405
0.00037405
0.000374215
0.000374215
0.000371297
0.000371297
0.00035221
0.00035221
0.000373638
0.000373638
0.000362572
0.000362572
0.000296168
0.000296168
0.000355001
0.000355001
0.000374213
0.000374213
0.000374301
0.000374301
0.000374612
0.000374612
0.000374236
0.000374236
0.000295376
0.000295376
0.000372195
0.000372195
0.00030847
0.00030847
0.000374348
0.000374348
0.000374259
0.000374259
0.000368744
0.000368744
0.000373673
0.000373673
0.000357755
0.000357755
0.000374538
0.000374538
0.000295314
0.000295314
0.000295522
0.000295522
0.000295538
0.000295538
0.000358521
0.000358521
0.000296522
0.000296522
0.000295573
0.000295573
0.00029506
0.00029506
0.000374156
0.000374156
0.00029659
0.00029659
0.000374217
0.000374217
0.000290508
0.000290508
0.000369604
0.000369604
0.000367176
0.000367176
0.000374227
0.000374227
0.000367975
0.000367975
0.000374775
0.000374775
0.00034716
0.00034716
0.000363501
0.000363501
0.000374376
0.000374376
0.000374203
0.000374203
0.000362735
0.000362735
0.000370015
0.000370015
0.00037089
0.00037089
0.00036874
0.00036874
0.00036648
0.00036648
0.000296458
0.000296458
0.000374223
0.000374223
0.000356403
0.000356403
0.000374349
0.000374349
0.000372279
0.000372279
0.000374256
0.000374256
0.000374211
0.000374211
0.000372364
0.000372364
0.000295646
0.000295646
0.000373897
0.000373897
0.000372913
0.000372913
0.000374189
0.000374189
0.000369283
0.000369283
0.0003426
0.0003426
0.000371521
0.000371521
0.000372986
0.000372986
0.000294561
0.000294561
0.000295485
0.000295485
0.000361405
0.000361405
0.000374558
0.000374558
0.000374566
0.000374566
0.00037414
0.00037414
0.000295673
0.000295673
0.000362328
0.000362328
0.000132688
0.000132688
0.00036561
0.00036561
0.000354992
0.000354992
0.000374385
0.000374385
0.000374173
0.000374173
0.000365971
0.000365971
0.000295584
0.000295584
0.000371809
0.000371809
0.000103926
0.000103926
0.000296589
0.000296589
0.000374276
0.000374276
3.5078e-05
3.5078e-05
0.000293519
0.000293519
0.000373918
0.000373918
0.00037351
0.00037351
0.000373498
0.000373498
0.000373124
0.000373124
0.000375492
0.000375492
0.000373318
0.000373318
0.000364727
0.000364727
0.000374497
0.000374497
2.66756e-05
2.66756e-05
2.66756e-05
2.25654e-05
2.25654e-05
2.25654e-05
0.00037463
0.00037463
0.000285377
0.000285377
0.000373811
0.000373811
0.000364081
0.000364081
0.00037417
0.00037417
0.000374117
0.000374117
0.000286568
0.000286568
6.62107e-05
6.62107e-05
6.62107e-05
0.000370679
0.000370679
0.000374449
0.000374449
0.000374755
0.000374755
0.000374361
0.000374361
0.000134508
0.000134508
0.00037406
0.00037406
0.000363448
0.000363448
3.7998e-05
3.7998e-05
0.000295175
0.000295175
0.000345199
0.000345199
0.000374554
0.000374554
0.000127099
0.000127099
0.000287384
0.000287384
0.000374075
0.000374075
0.000374437
0.000374437
0.000102828
0.000102828
0.000295722
0.000295722
0.000373358
0.000373358
0.000365114
0.000365114
0.000374744
0.000374744
0.000295655
0.000295655
0.000374203
0.000374203
0.000373269
0.000373269
0.000374418
0.000374418
0.000295382
0.000295382
7.76846e-05
7.76846e-05
0.000374232
0.000374232
0.00037458
0.00037458
0.000374423
0.000374423
0.000374577
0.000374577
0.000295574
0.000295574
0.000374466
0.000374466
0.000340016
0.000340016
0.000353758
0.000353758
0.000372666
0.000372666
0.000374411
0.000374411
0.000295782
0.000295782
0.000295357
0.000295357
0.000374144
0.000374144
0.000374832
0.000374832
0.000297203
0.000297203
0.000374637
0.000374637
0.00037449
0.00037449
6.3707e-05
6.3707e-05
6.3707e-05
0.000374403
0.000374403
0.00037443
0.00037443
0.000374435
0.000374435
0.00037441
0.00037441
7.59246e-05
7.59246e-05
0.000365536
0.000365536
0.000374311
0.000374311
0.000374801
0.000374801
0.000370084
0.000370084
0.000374402
0.000374402
0.00037463
0.00037463
0.000373837
0.000373837
0.000370299
0.000370299
2.25837e-05
2.25837e-05
2.25837e-05
0.000126867
0.000126867
0.000373977
0.000373977
0.000375362
0.000375362
0.000374493
0.000374493
0.000374388
0.000374388
0.000295622
0.000295622
0.000374149
0.000374149
0.000374347
0.000374347
0.00037468
0.00037468
0.000295576
0.000295576
0.000374411
0.000374411
0.000288497
0.000288497
0.000374428
0.000374428
0.000375182
0.000375182
0.000374895
0.000374895
0.000374374
0.000374374
0.000371364
0.000371364
0.000295786
0.000295786
0.000374516
0.000374516
0.000374384
0.000374384
5.30253e-05
5.30253e-05
0.000374301
0.000374301
0.000374419
0.000374419
6.96528e-05
6.96528e-05
0.000374392
0.000374392
2.38107e-05
2.38107e-05
2.38107e-05
0.000375556
0.000375556
0.000374665
0.000374665
0.000374483
0.000374483
5.63161e-05
5.63161e-05
5.63161e-05
0.000374491
0.000374491
0.00037436
0.00037436
0.000375814
0.000375814
0.000374226
0.000374226
5.05338e-05
5.05338e-05
0.000372468
0.000372468
0.000374853
0.000374853
0.000372284
0.000372284
0.000295595
0.000295595
0.000295704
0.000295704
0.000306509
0.000306509
9.15425e-05
9.15425e-05
0.000374515
0.000374515
0.000374288
0.000374288
0.000295773
0.000295773
0.000375141
0.000375141
0.000374196
0.000374196
0.000374296
0.000374296
0.000374441
0.000374441
0.000374716
0.000374716
0.000374455
0.000374455
0.000374502
0.000374502
0.00037419
0.00037419
0.000295625
0.000295625
0.000374199
0.000374199
0.000295478
0.000295478
0.000372309
0.000372309
0.000295629
0.000295629
0.000357321
0.000357321
7.28996e-05
7.28996e-05
0.000374347
0.000374347
0.000290935
0.000290935
0.00035616
0.00035616
0.000374277
0.000374277
0.000374261
0.000374261
0.00030825
0.00030825
0.00037494
0.00037494
0.000374358
0.000374358
0.000374436
0.000374436
0.000374384
0.000374384
8.82983e-05
8.82983e-05
4.09356e-05
4.09356e-05
4.09356e-05
0.000374343
0.000374343
0.000374542
0.000374542
0.000367107
0.000367107
0.000295505
0.000295505
0.000298806
0.000298806
9.16833e-05
9.16833e-05
0.000374698
0.000374698
0.000374334
0.000374334
0.000374527
0.000374527
0.00029531
0.00029531
0.000374376
0.000374376
0.00037544
0.00037544
0.000352521
0.000352521
0.000290993
0.000290993
0.000374975
0.000374975
0.000374414
0.000374414
0.000295595
0.000295595
0.000375226
0.000375226
5.55463e-05
5.55463e-05
5.55463e-05
0.000374497
0.000374497
0.00037599
0.00037599
0.000374124
0.000374124
0.000374897
0.000374897
0.00037426
0.00037426
0.000373233
0.000373233
0.000376279
0.000376279
0.000374274
0.000374274
0.000291821
0.000291821
0.00037378
0.00037378
0.000374099
0.000374099
0.000374533
0.000374533
0.000374199
0.000374199
0.000295817
0.000295817
0.000373973
0.000373973
0.00037445
0.00037445
0.000374759
0.000374759
0.000374534
0.000374534
0.000374463
0.000374463
0.000295363
0.000295363
0.00037432
0.00037432
0.000374542
0.000374542
0.000294251
0.000294251
0.000374238
0.000374238
0.000296259