/*--------------------------------*- C++ -*----------------------------------*\
  =========                 |
  \\      /  F ield         | OpenFOAM: The Open Source CFD Toolbox
   \\    /   O peration     | Website:  https://openfoam.org
    \\  /    A nd           | Version:  8
     \\/     M anipulation  |
\*---------------------------------------------------------------------------*/
FoamFile
{
    version     2.0;
    format      ascii;
    class       volScalarField;
    location    "0.05";
    object      p;
}
// * * * * * * * * * * * * * * * * * * * * * * * * * * * * * * * * * * * * * //

dimensions      [1 -1 -2 0 0 0 0];

internalField   nonuniform List<scalar> 
1924
(
0
-0.0817356
-1.03577
-1.13433
-0.241242
-1.41313
-1.57869
-1.80149
-1.97417
-0.809115
-2.19327
-2.36553
-0.150392
-2.63288
-3.67305
-3.70664
-0.274066
-2.84181
0.135202
-3.05503
0.121122
-1.52961
-0.32298
-3.36243
-1.63055
-2.23956
-2.27119
-0.480288
-0.49967
431.756
-0.400024
-1.78471
-0.134309
-0.269406
-0.539599
-0.381585
-1.823
-0.586867
474.262
-0.375226
-1.97056
0.0326087
-2.08467
-0.195166
30.0903
-0.557158
0.0456885
20.2792
0.751769
0.372321
0.231459
-0.138591
-1.39608
0.32531
-0.63392
-0.655555
0.164535
7.13506
-1.0484
-3.04504
-0.114257
-3.51339
-0.00913406
592.359
0.399138
5.98828
-3.35277
-0.541913
-0.615095
0.166072
-0.18582
-3.56498
556.12
356.938
322.761
-0.531914
8.85133
267
91.5597
0.0575489
27.3593
-2.41503
382.145
0.0196247
0.00116883
-0.605189
-0.884225
-3.55941
0.581398
-0.108628
-3.17936
-2.54967
-0.694608
-0.864616
-0.223132
0.469099
-1.12796
28.5911
-2.8929
-0.39692
-1.03915
-0.148973
-2.837
-2.66413
-0.953501
132.383
-1.04117
-0.905439
-3.08709
-0.845907
-0.762807
-0.787236
-0.480865
421.254
116.19
0.1269
-1.11455
-3.83106
-0.912542
58.1907
0.150667
2.5754
0.268986
0.0476781
-3.47827
-1.13457
-0.61133
223.379
-0.904042
828.125
-3.54051
-1.11296
-0.508909
360.899
-0.241705
-1.0819
-0.751706
-0.850455
-3.52286
-0.584082
-0.323251
-3.41154
-2.45789
-0.165191
-1.35785
828.997
-0.99102
-0.330504
-3.25051
-0.8884
491.279
2.8429
-0.566862
-1.33172
-1.45171
-1.22276
2.55555
-0.820013
-1.7004
347.256
403.132
-0.559193
-1.41393
2.39524
595.303
-1.17509
-1.37592
2.45674
80.7429
-1.05688
-0.281207
-1.69984
123.593
-2.7918
-0.77577
-0.982919
460.023
-0.177662
-0.319484
-1.63845
-1.43914
-4.02391
234.835
-1.46623
0.924107
0.253083
-0.644674
-1.67431
33.8689
317.01
-0.94459
-1.81594
0.288428
-1.73221
-1.62837
3.39049
-1.9115
-1.06696
-1.20919
-1.01542
-0.0564633
-0.0902012
-1.30101
-2.05699
-0.290048
-1.52061
-1.95804
-0.599413
-0.433151
-0.395841
1.35526
-1.12577
-3.69723
-1.71814
-1.75439
176.75
-3.30086
-1.03066
-2.06491
218.233
-1.17221
314.698
-1.40738
-3.68157
-2.19394
-1.98957
-2.18238
68.9206
-1.88766
-1.09666
-0.492144
-3.07879
-1.29174
-0.310309
-2.1474
495.239
-3.94016
-2.28841
-1.54105
10.545
-4.1542
-1.45641
-3.96572
-0.679167
35.9143
-0.371025
-2.43258
-1.02279
226.9
94.8118
0.282951
-33.0881
-1.97572
-1.28614
51.4507
-3.80123
-2.34105
-1.47346
-1.26101
-2.40714
-1.40988
-1.66559
-2.84757
175.288
-1.87538
331.36
0.0892977
147.444
-0.64362
0.225255
-1.04375
525.685
-0.395687
-1.69687
-3.16482
-3.30842
-2.5874
-2.2228
-1.37864
-1.23513
0.124729
243.22
-3.0795
-2.15037
0.255457
305.388
-3.32695
257.439
-2.62261
-1.5366
-1.81114
442.861
-2.37942
-4.0947
0.266337
626.213
-3.80136
-0.637578
177.52
-4.08534
553.768
-1.53904
-4.26497
-3.45793
-2.8254
-1.92139
0.0506966
-4.30522
-1.55132
145.185
-0.467119
-0.73325
-2.2347
-1.4163
22.0148
-0.0297079
-1.49897
-2.76105
-1.93693
-1.65428
377.189
-1.12252
-1.66249
612.144
-2.15972
18.8526
-1.68489
-1.77334
-1.14238
-3.47228
-1.31374
-3.43231
-1.34389
-3.01391
243.258
-2.45219
-3.15456
-2.09115
-2.40953
-1.82167
37.881
504.555
-1.65031
-0.717755
-3.86428
-3.71883
-0.360906
-3.63388
-0.696773
-2.00906
-2.1127
0.561459
599.664
-4.383
-0.393503
85.1948
1.77158
-2.93745
-1.48756
0.567211
-2.60572
-4.17775
-4.40578
-3.3217
-2.02807
-1.96286
-1.56932
-1.0692
-2.4862
-2.21274
-4.46747
-1.74184
-1.71806
-4.33675
-2.59223
0.0546609
-4.17077
-3.88134
-1.88053
-3.72666
-3.78388
110.063
-1.76487
-1.90221
-1.2575
-4.5951
279.403
-3.41371
-2.49527
-2.11731
519.298
-1.42324
-1.91478
-3.59245
-2.40294
-0.501829
-2.34655
-1.80387
-6.54975
-3.88209
869.626
167.393
-0.674165
-0.74038
2.46176
-3.29594
-4.32113
-3.68018
-1.57536
-2.26617
-2.67581
-1.35187
-3.09957
-2.27039
-2.65458
-3.50434
11.8627
-4.49264
-0.753028
-1.33735
-4.52007
-1.14574
-4.38779
-0.490036
-2.10572
-4.62013
33.8483
488.165
-1.64938
-2.83683
-3.38946
12.118
-2.99209
-1.20707
-2.50786
-2.74932
-4.65544
0.196703
-2.42996
-2.02844
-1.3338
-2.57509
-1.98736
692.657
-3.85225
199.749
-2.82639
197.258
-1.9937
-3.55796
-3.98654
-1.57617
-2.14993
-4.26498
-2.49396
-2.14376
-4.60101
-4.20581
-1.13821
-3.91685
24.0173
-1.87773
-0.0546573
-0.990194
-0.751142
-3.64477
-3.81172
-2.72592
-2.59356
168.857
-2.33757
-1.43195
355.912
-4.65964
-1.10449
46.4029
597.813
-3.19476
-3.93868
-4.01495
-2.91457
-2.68523
-3.3541
-3.90124
-1.80316
-2.25937
-2.80744
-4.46113
-3.05568
10.9194
0.128471
-2.97057
-1.36076
-1.57832
-4.78826
-4.37006
-3.97355
-3.52394
-2.72629
651.451
-4.83108
-4.21534
-1.27736
-2.10663
-0.441294
-3.65406
-4.52791
-2.56852
-1.65654
-4.7966
97.2927
-4.12606
-3.6099
-2.23068
-3.77372
-3.86149
-2.03088
-2.22124
-2.75677
-4.06075
-1.22009
-4.51397
2.13477
-4.8632
-2.39039
-2.37053
265.832
-0.113903
-2.48972
-2.88669
-1.00281
-3.31854
-1.584
-0.544863
-0.705959
-4.02791
-2.76345
-1.1892
-0.163614
-2.33567
-1.88198
641.948
0.0605933
124.134
-4.72552
-3.03617
460.746
666.98
-4.0637
-4.40159
-2.95506
-3.49727
-4.19367
-1.44045
-2.79808
-0.628821
-0.193054
0.233918
711.677
567.773
-2.25875
-1.15048
-0.713244
-3.57992
-1.35146
-0.752958
7.16145
-1.85621
393.574
-1.80831
-4.69976
-3.19957
-2.71862
-3.74198
183.809
-3.9908
-0.348529
-0.546181
-5.01158
-0.800004
-2.10805
-4.12411
-2.89292
-3.82582
0.412078
-0.0130933
-4.86651
-0.547494
-5.22088
546.922
-2.56377
-1.36972
0.452824
0.333953
0.157091
-5.07358
-4.07694
65.7084
-4.11416
-0.935636
0.603774
-4.82647
-2.94796
712.434
-1.66264
-3.41401
-2.45055
27.5354
-0.832239
-0.504856
-2.48619
-4.31026
-0.431179
8.75475
-2.03324
-4.1519
-2.46687
-0.781529
0.516147
698.663
-4.93735
-6.77485
-2.00202
-2.3341
-2.94386
299.448
-0.161615
-4.18012
-2.59894
-0.592607
-4.1991
-3.02506
55.0344
-0.791495
-1.59056
0.583436
-2.94546
721.78
-3.18216
-5.01862
-3.55481
-3.71275
-1.88561
-2.79044
-3.70386
-4.54847
-2.2584
-4.64993
-3.26474
-1.30787
-1.22915
-3.79547
-0.741756
-2.62376
-0.239261
-3.95666
-1.01345
52.1899
-2.71246
-0.676111
-0.841002
0.0182427
216.05
-5.12572
-4.04105
679.369
-2.55956
-4.25071
-1.4479
-1.81259
-2.10922
7.21797
0.110092
3.17436
-4.55088
-5.33661
-3.01513
-4.31235
0.195103
-0.394899
-5.16022
-5.1006
-4.27691
-4.24116
-2.48319
-3.01168
-4.20453
1026.07
-5.13495
-0.0557243
533.147
-3.11244
-2.20526
-3.01518
-1.16002
-4.84635
-0.472904
106.883
-2.03522
-2.33284
-4.41582
-0.728127
-3.17017
-0.497867
0.372366
-3.24971
-3.68751
-2.93699
-5.2109
-1.66788
-1.37725
0.12407
-3.76821
1058.23
-2.78384
-2.67449
-3.92653
-0.945692
-4.82364
0.377445
133.674
-4.33926
11.7729
-0.203291
-4.35432
0.262648
-0.09527
0.552764
-0.740658
-5.12413
-4.00866
-0.632424
811.396
-2.2581
-4.32745
-2.7071
-4.28953
-3.40972
-4.36599
-0.802493
0.303844
-4.16965
-6.40137
0.731127
-2.42058
687.479
-1.88878
-0.278395
-1.59622
-5.1798
-2.556
-3.84745
-3.15101
838.319
780.787
-2.69525
503.389
0.485351
1034.71
-4.39352
368.296
-4.25332
-4.76761
-5.08683
-2.48069
-0.428522
-3.00648
-2.11029
-0.0166891
-3.23778
-4.40255
-3.15961
750.34
-3.89968
-0.581983
-5.26087
-1.81627
-2.92958
-0.0896108
-3.74431
-0.592338
32.6453
-3.17286
-0.785568
-3.47513
275.919
-4.4935
-3.39222
-5.09297
683.281
-0.505645
-1.02224
-5.13354
-3.98015
-2.33187
-4.79549
-5.32089
0.362696
-3.47317
-1.23698
0.0153569
-0.818466
-2.7782
614.382
6.57009
-4.6338
800.853
-4.45499
-4.13816
-2.03695
196.179
-5.24776
744.039
0.71478
-1.45393
-0.234193
-4.51169
0.167542
-2.70255
-1.0272
-0.738441
-2.84516
-4.86226
0.0967431
-4.41597
-5.3199
-2.25791
-4.45506
-4.22005
-0.307863
-4.49354
-4.80536
-1.67225
-3.22722
-2.55308
-3.15032
56.107
-4.56767
-5.20932
1.37156
-2.61458
0.689507
-3.37991
-2.99901
2.06708
-0.954149
-3.45784
-2.47866
-4.55608
-1.16752
-3.26494
-4.3803
-0.0439013
17.7084
-4.5389
-3.87602
-0.811837
-1.89144
0.350488
109.012
-4.54156
-4.85665
-3.95482
402.733
-0.529812
-4.11017
0.281431
-2.92322
-0.115853
-0.456496
-5.28238
-1.38348
-0.317036
-3.22987
-2.11123
472.561
-6.50966
-0.36541
0.761725
-3.61499
727.445
-1.60084
-4.60865
308.083
-3.90036
-2.7735
-4.19025
-2.90438
-4.46329
-4.50112
-2.33113
-5.16441
0.36412
-4.95048
-5.30516
-5.34735
-5.34685
-4.61413
-0.602506
-4.6156
-0.259047
228.477
-1.81931
0.534303
-3.21813
-2.69879
-5.10754
0.144064
-3.4458
-5.08593
-3.36908
581.143
-5.40298
0.405451
0.466444
-4.34791
0.0736897
-3.14235
-2.03841
30.506
133.086
-4.65095
-2.55075
1069.95
-5.33022
-0.331781
-5.25515
-2.91295
-3.3949
-3.59764
-2.2578
-4.66564
-2.99273
-1.02923
-4.08533
-0.524533
-4.73194
-1.24303
-3.67665
-4.42921
5.93658
0.343961
-5.39464
0.310445
0.668522
-3.93242
-2.47705
-4.16379
-0.0663156
-4.68985
-0.746767
-2.91791
630.207
-1.45878
-4.66854
0.211961
-0.395096
0.144631
-0.137589
-4.77401
801.235
-5.5027
-1.67576
-3.44457
0.330682
-4.31885
-4.94288
-2.7697
-3.43528
0.261608
-5.17604
-1.89362
51.8259
-3.35967
-4.79168
688.478
-4.03949
-3.58553
-4.62716
-0.75767
-4.73673
-3.66186
-0.538798
-2.11206
-3.21045
-4.58945
-2.69578
931.512
854.141
-1.17338
-1.34262
-4.39848
-5.59265
-2.33063
-1.38828
17.6031
-0.960715
-4.75723
-4.78576
-0.282311
-3.13566
0.124262
-0.81921
-4.82645
-1.60449
-0.609154
-4.78916
-3.30232
-5.42193
969.051
-2.54898
0.0543517
-4.82669
-4.06334
-5.45458
-5.37943
-4.14038
-3.81633
-1.82175
-2.9876
-5.28608
-5.05963
-5.31715
0.68872
-7.12943
-5.62509
-4.293
-2.03961
-4.55579
261.137
578.801
776.223
-0.610522
-5.43033
-4.71133
0.516959
0.449058
-2.25778
-3.5074
788.173
-2.91361
-0.332517
-4.82841
-3.55326
-4.67203
-4.8785
-3.42638
-5.51304
-3.65027
-3.575
-4.37104
-2.47586
-5.14161
-0.0851322
-2.76674
15.6138
-3.21676
-3.35178
-5.13358
-4.63655
-1.24759
-3.79955
-0.404157
-1.46245
819.219
-0.158411
-5.31621
-4.91411
-3.20414
-5.68209
0.313311
-4.89244
0.244527
-2.69347
-1.67847
-3.87714
-4.5257
0.651039
-4.98943
-1.89532
-3.13022
372.899
-4.27014
-2.11274
0.470865
-0.12423
-1.03442
-5.99739
-4.11972
-4.93991
-4.0945
-2.33032
-4.94648
279.252
475.327
-2.98356
-4.34675
-4.94312
22.6325
-4.60481
0.107575
-1.39183
-2.54771
-0.753068
211.55
-3.64032
0.581599
-0.545547
-3.78805
-4.88139
-3.56604
0.0379567
-4.83622
0.785905
0.77676
-3.24214
-0.180507
-2.91029
-5.43631
-1.60722
-3.41904
-3.86288
-0.199152
-5.03962
-5.46423
-5.46066
-0.824196
-4.49892
-1.8236
127.886
-5.99702
-5.04124
-4.79688
-4.97496
-2.04055
-1.17768
-3.34534
-5.48286
-5.36837
0.43364
-2.25783
-5.08963
0.75782
0.50125
-0.340252
-2.76457
21.1607
-3.19915
-2.47504
586.112
0.720737
-4.57648
-5.45881
-5.01696
-4.99861
-5.07812
-5.32876
-0.103956
-4.76181
845.764
-4.24998
-4.0145
0.736999
7.6889
-3.126
0.526642
0.298393
-4.32537
-5.78363
-2.69185
-5.31174
-0.965426
-0.616361
0.22997
-3.44323
-4.96874
-4.47523
988.016
256.34
-4.9205
-4.87881
-0.41041
-5.09748
-0.824643
-4.22978
-1.46504
0.63472
-2.98058
-3.85213
-3.63211
-4.81489
-1.68041
-3.77827
945.735
729.45
-5.20122
1151.23
-3.55872
-1.89658
-0.136711
-4.842
-5.07669
-4.55138
-1.25079
-4.73062
-2.1133
-3.41322
1164.88
-6.19122
-5.15653
-2.3302
-5.22361
0.0934666
-5.14539
-0.796247
802.298
-5.24949
-2.90792
-5.51406
0.651804
0.347839
-3.99883
-3.34032
-2.54694
842.623
-5.11116
0.0237638
-0.206817
0.630983
-4.97163
-5.52601
-3.19545
-4.07452
-5.47699
-5.25163
-5.2073
-5.29882
-1.03793
-4.80916
-1.39414
-5.21822
-5.09035
-4.70294
0.420345
0.487527
-5.1676
-2.76319
-4.45441
-1.60905
708.798
-4.30666
-1.8249
-5.17618
-2.04131
-5.0021
825.93
-5.43004
1067.56
1173.68
-4.52931
-5.04325
-2.25804
0.719635
1103.07
-3.12296
0.0666538
-0.550074
-2.47472
-1.18042
-5.45794
-3.84317
-5.45056
0.285815
-0.34518
-5.25081
-3.62557
-5.21158
-3.77021
-0.75719
0.217844
0.430823
-4.96573
-5.36219
0.620086
-5.12685
-5.73824
-3.98832
-5.30272
-4.6785
-3.55301
-5.29509
-2.69103
-5.08351
1232.99
-4.77996
-0.00484531
-5.40872
-5.35058
-4.28621
-2.97864
403.233
-4.06168
-3.40889
1241.27
-5.19608
-5.24718
-5.56656
-5.04529
309.027
-0.968154
-5.45668
96.8025
227.416
0.328329
-3.33669
-5.56522
194.19
-0.142571
-5.37916
-4.75412
0.57413
-5.45787
-5.2047
-5.32974
-2.90664
-4.43628
508.924
-5.4115
-5.55697
-0.414383
-4.93346
-5.22174
-0.62007
-4.51006
-4.20957
0.00894817
-5.51986
0.0812601
-5.25158
91.8159
51.3173
1027.23
-0.827953
-5.49503
0.702906
-4.65704
-5.28534
760.412
-5.01138
-3.19302
-5.50529
-5.37842
0.474485
3.52335
-5.44753
-5.50739
-5.7578
0.666153
0.569993
0.409254
1200.87
-5.52909
0.475884
-3.83603
-5.36367
-3.97966
-5.16719
-5.40928
-4.73142
0.486108
-4.41905
687.723
622.874
-5.29034
-5.55519
1317.06
-4.52819
-4.05211
-0.211071
-3.76391
-1.25206
0.0578021
-1.4662
-4.90492
0.607407
1169.13
1132.49
-1.68142
-5.32596
1363.14
-5.24604
-3.6207
948.106
-1.89741
-5.40407
-2.11396
-5.51479
0.65533
-2.33065
-3.12127
0.4522
-5.48349
-5.57846
1051.39
-3.8652
-2.54719
-4.26972
0.275557
-4.98133
-4.19618
-5.56443
-3.54888
-5.66107
-4.87977
-1.13809
-4.63841
-1.0392
-5.6126
1088.24
-5.13398
-5.59531
-4.49347
0.207766
-0.862187
0.687685
1348
-2.76324
-5.37453
-5.513
-4.71165
-3.40603
-5.21121
-0.0100387
-5.36574
-4.95481
-5.2377
-5.59277
-5.5626
0.256232
-5.65856
-5.28762
-5.44347
-5.71068
-5.60912
-4.85775
-0.828807
-4.47695
-4.04446
-0.620778
-5.10466
-5.34373
-5.10142
-5.61163
-5.60921
-5.47662
-2.97851
-5.7073
-4.25885
-3.97286
-0.414977
-4.62245
-3.33464
-5.65923
-4.93155
860.101
-4.40314
-5.31235
-4.18696
-5.34903
-4.69468
-5.75651
1248.27
-5.43461
1370.53
-5.38162
0.188577
-5.1804
1342.2
-5.69044
-5.59699
-5.60467
-3.8307
1472.73
-4.60826
-5.33182
1411.65
0.596851
0.674317
0.32013
-4.83866
-5.60819
-5.50693
1210.75
-5.66031
-5.66779
-0.211533
-5.07889
0.466474
-4.82236
-4.46393
-5.40795
-4.68033
-3.75935
0.400408
-5.44472
-3.19272
-4.91133
-4.39214
-5.57978
-4.25078
1286.52
-1.18064
-5.76255
1091.8
-1.39435
-5.05636
-1.60921
-4.89399
-5.62383
-1.82495
-5.15328
-5.55885
-2.04132
-4.80872
-5.68787
-0.0105298
-2.25796
-2.47456
-4.17974
-1.2034
-4.87938
-5.66826
-3.61747
-4.66734
-5.8078
898.549
0.582141
0.442321
-2.69079
-4.03874
-5.30192
-5.03689
-5.83639
-4.5959
1540.59
-5.7394
-4.45493
-5.02028
-5.78753
0.187914
0.266432
1240
-2.90633
-5.8863
-5.12953
0.663009
-5.66229
-4.79724
-5.00642
-5.73568
-4.38451
-0.968176
-0.75871
-5.3766
-5.10892
-0.551466
-5.55342
-3.4056
-4.86737
-3.54652
1471.88
-5.70696
-5.6758
-5.52477
0.196776
-5.54783
-5.51573
-5.07644
-5.09127
-5.46739
-5.76639
-4.24473
-5.45626
-4.65717
-0.346515
-5.56563
-5.79234
-3.96793
0.449355
-5.67383
-3.12091
-5.48242
881.869
994.286
1245.54
-5.75296
-4.58714
-4.99516
-5.21614
-5.63606
-5.23298
1566.31
0.58853
-5.05512
-5.06428
-5.6045
-5.69215
-4.44858
-5.68282
-5.2021
-5.93816
-4.1745
-4.96728
-5.05053
-5.40791
-0.143942
-5.27566
-5.67971
-4.85734
-5.57835
-3.82717
-5.73398
-5.25276
-5.81778
1455.51
-5.58717
-3.33426
0.0561495
-4.78793
-5.91946
0.653889
-5.69646
-5.27116
-5.28616
-5.77336
-4.65028
-5.60054
-5.49463
-5.63785
-5.58513
-5.82173
-5.81217
-4.37899
-5.87027
-5.45733
-5.19072
1141.55
-4.98625
-5.86216
-5.05465
-5.51756
-4.03494
-5.68741
0.383911
0.253337
-5.72602
1403.54
-5.34902
-5.7856
-5.82624
-5.75904
-5.25888
-5.30403
-5.96988
-5.84937
-5.76709
-4.58135
-5.77739
-4.84989
-5.8695
1581.62
1622.34
-5.18189
-5.66921
-5.89784
0.459281
-0.831862
-5.40815
-5.56898
-5.84518
-5.87702
-5.39405
-5.81318
-3.61693
-3.54612
-5.2492
-5.0473
-4.78153
-4.24069
-5.63546
-5.77448
-3.75673
-5.93266
-5.42509
-5.38267
-5.17549
0.392986
-4.97964
-5.92242
-4.44434
1412.14
1300.3
-5.80617
-5.24202
-5.93209
-5.99297
-6.02248
-5.88151
-5.86566
-5.32492
-5.9612
-4.17147
-6.0125
-5.89268
-5.37391
-5.89701
-4.64584
-5.29681
-3.9651
-5.46262
-5.98028
-5.47774
-5.46813
-5.54116
-5.9939
-5.45757
-5.95703
-6.05103
-4.84514
-5.92029
-5.45028
-5.3677
-5.04225
-4.03422
-4.2399
-4.17108
-5.94068
0.647076
-6.00793
-5.44059
-5.2372
-6.028
-6.10477
-6.01396
-6.13717
-6.05121
-6.11285
-5.44502
-6.17986
-5.49575
-5.43347
-6.14293
-6.0754
-6.05611
-4.37578
-6.13858
-5.42891
-5.36405
-5.17136
-6.14011
-6.19754
-4.57797
-5.98265
-6.09107
-4.77797
-6.27739
-6.32449
-4.97576
-5.21431
-6.35837
-6.43815
-6.40403
-6.24565
-6.23921
1473.93
1596.23
-6.49783
1660.67
-6.43437
1652.09
-4.57756
-4.64486
-5.51683
-4.44346
-4.37539
-3.96469
-4.84402
-4.77751
-3.75632
-3.82653
-6.24149
-6.32685
-6.07812
-6.38613
-6.30297
-6.26331
-6.17693
-6.47857
-5.42719
-5.3631
-5.23534
-5.17052
-4.9752
-5.04088
-6.19936
-6.28904
186.066
-6.18051
-6.04867
-6.11569
0.582568
0.642742
1017.03
0.250699
840.195
0.640987
0.452975
-1.15008
0.489061
0.386063
0.578609
1.67286
138.108
864.087
767.088
0.577051
766.117
-1.21896
1.47005
952.134
-1.20625
604.16
0.259711
-0.896618
932.336
0.72908
0.622838
1.32275
1.95512
-405.447
1.84284
1.47996
1.68386
894.376
793.815
865.035
0.874056
0.895797
0.887297
737.733
-0.864016
-1.14461
0.857114
0.162934
0.325624
915.232
960.842
352.905
0.350685
137.701
0.54396
2.16869
2.03156
0.849287
2.88591
2.01605
7.06393
1.42837
1.81683
1.83192
2.41448
2.18361
951.076
-0.927296
0.668943
99.0617
1.35439
0.831588
0.341001
0.732446
0.297338
0.81248
-0.893432
0.714093
0.224848
0.262214
0.838065
0.366024
0.643812
0.421127
0.794647
-4.56006
0.358211
-0.95511
0.781308
0.59684
-4.14212
0.677321
0.33295
0.785596
0.184225
-0.924412
-3.76513
0.881734
0.574878
2.48524
-0.996425
-5.11478
0.517093
-4.52306
-0.95182
0.698709
-1.00975
-4.5012
0.406869
-1.0319
0.365861
0.503679
0.566707
0.213269
-0.960824
2.33882
2.39196
-3.8167
)
;

boundaryField
{
    patch0
    {
        type            calculated;
        value           nonuniform List<scalar> 
4010
(
2.22045e-16
2.22045e-16
-0.0817356
-0.0817356
-1.03577
-1.03577
-1.13433
-1.13433
-0.241242
-0.241242
-1.41313
-1.41313
-1.57869
-1.57869
-1.80149
-1.80149
-1.97417
-1.97417
-0.809115
-0.809115
-2.19327
-2.19327
-2.36553
-2.36553
-0.150392
-0.150392
-2.63288
-2.63288
-3.67305
-3.67305
-3.70664
-3.70664
-0.274066
-0.274066
-2.84181
-2.84181
0.135202
0.135202
-3.05503
-3.05503
0.121122
0.121122
-1.52961
-1.52961
-0.32298
-0.32298
-3.36243
-3.36243
-1.63055
-1.63055
-2.23956
-2.23956
-2.27119
-2.27119
-0.480288
-0.480288
-0.49967
-0.49967
431.756
431.756
-0.400024
-0.400024
-1.78471
-1.78471
-0.134309
-0.134309
-0.269406
-0.269406
-0.539599
-0.539599
-0.381585
-0.381585
-1.823
-1.823
-0.586867
-0.586867
474.262
474.262
-0.375226
-0.375226
-1.97056
-1.97056
0.0326087
0.0326087
-2.08467
-2.08467
-0.195166
-0.195166
30.0903
30.0903
-0.557158
-0.557158
0.0456885
0.0456885
20.2792
20.2792
0.751769
0.751769
0.372321
0.372321
0.231459
0.231459
-0.138591
-0.138591
-1.39608
-1.39608
0.32531
0.32531
-0.63392
-0.63392
-0.655555
-0.655555
0.164535
0.164535
7.13506
7.13506
-1.0484
-1.0484
-3.04504
-3.04504
-0.114257
-0.114257
-3.51339
-3.51339
-0.00913406
-0.00913406
592.359
592.359
0.399138
0.399138
5.98828
5.98828
-3.35277
-3.35277
-0.541913
-0.541913
-0.615095
-0.615095
0.166072
0.166072
-0.18582
-0.18582
-3.56498
-3.56498
556.12
556.12
356.938
356.938
322.761
322.761
-0.531914
-0.531914
8.85133
8.85133
267
267
91.5597
91.5597
0.0575489
0.0575489
27.3593
27.3593
-2.41503
-2.41503
382.145
382.145
0.0196247
0.0196247
0.00116883
0.00116883
-0.605189
-0.605189
-0.884225
-0.884225
-3.55941
-3.55941
0.581398
0.581398
-0.108628
-0.108628
-3.17936
-3.17936
-2.54967
-2.54967
-0.694608
-0.694608
-0.864616
-0.864616
-0.223132
-0.223132
0.469099
0.469099
-1.12796
-1.12796
28.5911
28.5911
-2.8929
-2.8929
-0.39692
-0.39692
-1.03915
-1.03915
-0.148973
-0.148973
-2.837
-2.837
-2.66413
-2.66413
-0.953501
-0.953501
132.383
132.383
-1.04117
-1.04117
-0.905439
-0.905439
-3.08709
-3.08709
-0.845907
-0.845907
-0.762807
-0.762807
-0.787236
-0.787236
-0.480865
-0.480865
421.254
421.254
116.19
116.19
0.1269
0.1269
-1.11455
-1.11455
-3.83106
-3.83106
-0.912542
-0.912542
58.1907
58.1907
0.150667
0.150667
2.5754
2.5754
0.268986
0.268986
0.0476781
0.0476781
-3.47827
-3.47827
-1.13457
-1.13457
-0.61133
-0.61133
223.379
223.379
-0.904042
-0.904042
828.125
828.125
-3.54051
-3.54051
-1.11296
-1.11296
-0.508909
-0.508909
360.899
360.899
-0.241705
-0.241705
-1.0819
-1.0819
-0.751706
-0.751706
-0.850455
-0.850455
-3.52286
-3.52286
-0.584082
-0.584082
-0.323251
-0.323251
-3.41154
-3.41154
-2.45789
-2.45789
-0.961011
-0.165191
-0.165191
-0.134453
-1.35785
-1.35785
828.997
828.997
-0.99102
-0.99102
-0.330504
-0.330504
-3.25051
-3.25051
-0.8884
-0.8884
491.279
491.279
2.8429
2.8429
2.96243
-0.566862
-0.566862
-1.33172
-1.33172
-1.45171
-1.45171
-1.22276
-1.22276
2.55555
2.55555
-0.820013
-0.820013
-1.7004
-1.7004
347.256
347.256
403.132
403.132
-0.559193
-0.559193
-1.41393
-1.41393
2.39524
2.39524
595.303
595.303
-1.17509
-1.17509
-1.37592
-1.37592
2.45674
2.45674
80.7429
80.7429
-1.05688
-1.05688
-0.281207
-0.281207
-1.69984
-1.69984
123.593
123.593
-2.7918
-2.7918
-0.77577
-0.77577
-0.982919
-0.982919
460.023
460.023
-0.177662
-0.177662
-0.319484
-0.319484
-1.63845
-1.63845
-1.43914
-1.43914
-4.02391
-4.02391
234.835
234.835
-1.46623
-1.46623
0.924107
0.924107
0.253083
0.253083
-0.644674
-0.644674
-1.67431
-1.67431
33.8689
33.8689
317.01
317.01
-0.94459
-0.94459
-1.81594
-1.81594
0.288428
0.288428
-1.73221
-1.73221
-1.62837
-1.62837
3.39049
3.39049
3.76512
-1.9115
-1.9115
-1.06696
-1.06696
-1.20919
-1.20919
-1.01542
-1.01542
-0.0564633
-0.0564633
-0.0902012
-0.0902012
-1.30101
-1.30101
-2.05699
-2.05699
-0.290048
-0.290048
-1.52061
-1.52061
-1.95804
-1.95804
-0.599413
-0.599413
-0.433151
-0.433151
-0.395841
-0.395841
-0.367501
1.35526
1.35526
-1.12577
-1.12577
-3.69723
-3.69723
-1.71814
-1.71814
-1.75439
-1.75439
176.75
176.75
-3.30086
-3.30086
-1.03066
-1.03066
-2.06491
-2.06491
218.233
218.233
-1.17221
-1.17221
314.698
314.698
-1.40738
-1.40738
-3.68157
-3.68157
-2.19394
-2.19394
-1.98957
-1.98957
-2.18238
-2.18238
68.9206
68.9206
-1.88766
-1.88766
-1.09666
-1.09666
-0.492144
-0.492144
-3.07879
-3.07879
-1.29174
-1.29174
-0.310309
-0.310309
-2.1474
-2.1474
495.239
495.239
523.578
-3.94016
-3.94016
-2.28841
-2.28841
-1.54105
-1.54105
10.545
10.545
24.9441
-4.1542
-4.1542
-1.45641
-1.45641
-3.96572
-3.96572
-0.679167
-0.679167
35.9143
35.9143
-0.371025
-0.371025
-2.43258
-2.43258
-1.02279
-1.02279
226.9
226.9
94.8118
94.8118
0.282951
0.282951
-33.0881
-33.0881
-1.97572
-1.97572
-1.28614
-1.28614
51.4507
51.4507
-3.80123
-3.80123
-2.34105
-2.34105
-1.47346
-1.47346
-1.26101
-1.26101
-2.40714
-2.40714
-1.40988
-1.40988
-1.66559
-1.66559
-2.84757
-2.84757
175.288
175.288
-1.87538
-1.87538
331.36
331.36
0.0892977
0.0892977
147.444
147.444
-0.64362
-0.64362
0.225255
0.225255
-1.04375
-1.04375
525.685
525.685
-0.395687
-0.395687
-1.69687
-1.69687
-3.16482
-3.16482
-3.30842
-3.30842
-2.5874
-2.5874
-2.2228
-2.2228
-1.37864
-1.37864
-1.23513
-1.23513
0.124729
0.124729
243.22
243.22
309.841
-3.0795
-3.0795
-2.15037
-2.15037
0.255457
0.255457
305.388
305.388
-3.32695
-3.32695
257.439
257.439
-2.62261
-2.62261
-1.5366
-1.5366
-1.81114
-1.81114
442.861
442.861
-2.37942
-2.37942
-4.0947
-4.0947
0.266337
0.266337
626.213
626.213
-3.80136
-3.80136
-0.637578
-0.637578
177.52
177.52
-4.08534
-4.08534
553.768
553.768
643.547
-1.53904
-1.53904
-4.26497
-4.26497
-3.45793
-3.45793
-2.8254
-2.8254
-1.92139
-1.92139
0.0506966
0.0506966
-4.30522
-4.30522
-1.55132
-1.55132
145.185
145.185
-0.467119
-0.467119
-0.73325
-0.73325
-2.2347
-2.2347
-1.4163
-1.4163
22.0148
22.0148
-0.0297079
-0.0297079
-1.49897
-1.49897
-2.76105
-2.76105
-1.93693
-1.93693
-1.65428
-1.65428
377.189
377.189
-1.12252
-1.12252
-1.66249
-1.66249
612.144
612.144
-2.15972
-2.15972
18.8526
18.8526
-1.68489
-1.68489
-1.77334
-1.77334
-1.14238
-1.14238
-3.47228
-3.47228
-1.31374
-1.31374
-3.43231
-3.43231
-1.34389
-1.34389
-3.01391
-3.01391
243.258
243.258
-2.45219
-2.45219
-3.15456
-3.15456
-2.09115
-2.09115
-2.40953
-2.40953
-1.82167
-1.82167
37.881
37.881
504.555
504.555
-1.65031
-1.65031
-0.717755
-0.717755
-3.86428
-3.86428
-3.71883
-3.71883
-0.360906
-0.360906
-3.63388
-3.63388
-0.696773
-0.696773
-2.00906
-2.00906
-2.1127
-2.1127
0.561459
0.561459
599.664
599.664
-4.383
-4.383
-0.393503
-0.393503
85.1948
85.1948
1.77158
1.77158
-2.93745
-2.93745
-1.48756
-1.48756
0.567211
0.567211
-2.60572
-2.60572
-4.17775
-4.17775
-4.40578
-4.40578
-3.3217
-3.3217
-2.02807
-2.02807
-1.96286
-1.96286
-1.56932
-1.56932
-1.0692
-1.0692
-2.4862
-2.4862
-2.21274
-2.21274
-4.46747
-4.46747
-1.74184
-1.74184
-1.71806
-1.71806
-4.33675
-4.33675
-2.59223
-2.59223
0.0546609
0.0546609
-4.17077
-4.17077
-3.88134
-3.88134
-1.88053
-1.88053
-3.72666
-3.72666
-3.78388
-3.78388
110.063
110.063
-1.76487
-1.76487
-1.90221
-1.90221
-1.2575
-1.2575
-4.5951
-4.5951
279.403
279.403
-3.41371
-3.41371
-2.49527
-2.49527
-2.11731
-2.11731
519.298
519.298
-1.42324
-1.42324
-1.91478
-1.91478
-3.59245
-3.59245
-2.40294
-2.40294
-0.501829
-0.501829
-0.465038
-2.34655
-2.34655
-1.80387
-1.80387
-6.54975
-6.54975
-3.88209
-3.88209
869.626
869.626
167.393
167.393
-0.674165
-0.674165
-0.74038
-0.74038
2.46176
2.46176
2.51016
-3.29594
-3.29594
-4.32113
-4.32113
-3.68018
-3.68018
-1.57536
-1.57536
-2.26617
-2.26617
-2.67581
-2.67581
-1.35187
-1.35187
-3.09957
-3.09957
-2.27039
-2.27039
-2.65458
-2.65458
-3.50434
-3.50434
11.8627
11.8627
-4.49264
-4.49264
-0.753028
-0.753028
-1.33735
-1.33735
-4.52007
-4.52007
-1.14574
-1.14574
-4.38779
-4.38779
-0.490036
-0.490036
-2.10572
-2.10572
-4.62013
-4.62013
33.8483
33.8483
488.165
488.165
-1.64938
-1.64938
-2.83683
-2.83683
-3.38946
-3.38946
12.118
12.118
-2.99209
-2.99209
-1.20707
-1.20707
-2.50786
-2.50786
-2.74932
-2.74932
-4.65544
-4.65544
0.196703
0.196703
-2.42996
-2.42996
-2.02844
-2.02844
-1.3338
-1.3338
-2.57509
-2.57509
-1.98736
-1.98736
692.657
692.657
-3.85225
-3.85225
199.749
199.749
236.677
-2.82639
-2.82639
197.258
197.258
-1.9937
-1.9937
-3.55796
-3.55796
-3.98654
-3.98654
-1.57617
-1.57617
-2.14993
-2.14993
-4.26498
-4.26498
-2.49396
-2.49396
-2.14376
-2.14376
-4.60101
-4.60101
-4.20581
-4.20581
-1.13821
-1.13821
-3.91685
-3.91685
24.0173
24.0173
-1.87773
-1.87773
-0.0546573
-0.0546573
-0.990194
-0.990194
-0.751142
-0.751142
-3.64477
-3.64477
-3.81172
-3.81172
-2.72592
-2.72592
-2.59356
-2.59356
168.857
168.857
-2.33757
-2.33757
-1.43195
-1.43195
355.912
355.912
-4.65964
-4.65964
-1.10449
-1.10449
46.4029
46.4029
597.813
597.813
-3.19476
-3.19476
-3.93868
-3.93868
-4.01495
-4.01495
-2.91457
-2.91457
-2.68523
-2.68523
-3.3541
-3.3541
-3.90124
-3.90124
-1.80316
-1.80316
-2.25937
-2.25937
-2.80744
-2.80744
-4.46113
-4.46113
-3.05568
-3.05568
10.9194
10.9194
0.128471
0.128471
-2.97057
-2.97057
-1.36076
-1.36076
-1.57832
-1.57832
-4.78826
-4.78826
-4.37006
-4.37006
-3.97355
-3.97355
-3.52394
-3.52394
-2.72629
-2.72629
651.451
651.451
-4.83108
-4.83108
-4.21534
-4.21534
-1.27736
-1.27736
-2.10663
-2.10663
-0.441294
-0.441294
-3.65406
-3.65406
-4.52791
-4.52791
-2.56852
-2.56852
-1.65654
-1.65654
-4.7966
-4.7966
97.2927
97.2927
-4.12606
-4.12606
-3.6099
-3.6099
-2.23068
-2.23068
-3.77372
-3.77372
-3.86149
-3.86149
-2.03088
-2.03088
-2.22124
-2.22124
-2.75677
-2.75677
-4.06075
-4.06075
-1.22009
-1.22009
-4.51397
-4.51397
2.13477
2.13477
-4.8632
-4.8632
-2.39039
-2.39039
-2.37053
-2.37053
265.832
265.832
-0.113903
-0.113903
-2.48972
-2.48972
-2.88669
-2.88669
-1.00281
-1.00281
-3.31854
-3.31854
-1.584
-1.584
-0.544863
-0.544863
-0.705959
-0.705959
-4.02791
-4.02791
-2.76345
-2.76345
-1.1892
-1.1892
-0.163614
-0.163614
-2.33567
-2.33567
-1.88198
-1.88198
641.948
641.948
0.0605933
0.0605933
124.134
124.134
-4.72552
-4.72552
-3.03617
-3.03617
460.746
460.746
666.98
666.98
-4.0637
-4.0637
-4.40159
-4.40159
-2.95506
-2.95506
-3.49727
-3.49727
-4.19367
-4.19367
-1.44045
-1.44045
-2.79808
-2.79808
-0.628821
-0.628821
-0.193054
-0.193054
0.233918
0.233918
711.677
711.677
567.773
567.773
-2.25875
-2.25875
-1.15048
-1.15048
-0.713244
-0.713244
-3.57992
-3.57992
-1.35146
-1.35146
-0.752958
-0.752958
7.16145
7.16145
-1.85621
-1.85621
393.574
393.574
-1.80831
-1.80831
-4.69976
-4.69976
-3.19957
-3.19957
-2.71862
-2.71862
-3.74198
-3.74198
183.809
183.809
-3.9908
-3.9908
-0.348529
-0.348529
-0.546181
-0.546181
-5.01158
-5.01158
-0.800004
-0.800004
-2.10805
-2.10805
-4.12411
-4.12411
-2.89292
-2.89292
-3.82582
-3.82582
0.412078
0.412078
-0.0130933
-0.0130933
-4.86651
-4.86651
-0.547494
-0.547494
-5.22088
-5.22088
546.922
546.922
-2.56377
-2.56377
-1.36972
-1.36972
0.452824
0.452824
0.333953
0.333953
0.157091
0.157091
-5.07358
-5.07358
-4.07694
-4.07694
65.7084
65.7084
-4.11416
-4.11416
-0.935636
-0.935636
0.603774
0.603774
-4.82647
-4.82647
-2.94796
-2.94796
712.434
712.434
-1.66264
-1.66264
-3.41401
-3.41401
-2.45055
-2.45055
27.5354
27.5354
-0.832239
-0.832239
-0.504856
-0.504856
-2.48619
-2.48619
-4.31026
-4.31026
-0.431179
-0.431179
8.75475
8.75475
-2.03324
-2.03324
-4.1519
-4.1519
-2.46687
-2.46687
-0.781529
-0.781529
0.516147
0.516147
698.663
698.663
-4.93735
-4.93735
-6.77485
-6.77485
-2.00202
-2.00202
-2.3341
-2.3341
-2.94386
-2.94386
299.448
299.448
-0.161615
-0.161615
-4.18012
-4.18012
-2.59894
-2.59894
-0.592607
-0.592607
-4.1991
-4.1991
-3.02506
-3.02506
55.0344
55.0344
-0.791495
-0.791495
-1.59056
-1.59056
0.583436
0.583436
-2.94546
-2.94546
721.78
721.78
-3.18216
-3.18216
-5.01862
-5.01862
-3.55481
-3.55481
-3.71275
-3.71275
-1.88561
-1.88561
-2.79044
-2.79044
-3.70386
-3.70386
-4.54847
-4.54847
-2.2584
-2.2584
-4.64993
-4.64993
-3.26474
-3.26474
-1.30787
-1.30787
-1.22915
-1.22915
-3.79547
-3.79547
-0.741756
-0.741756
-2.62376
-2.62376
-0.239261
-0.239261
-3.95666
-3.95666
-1.01345
-1.01345
52.1899
52.1899
-2.71246
-2.71246
-0.676111
-0.676111
-0.841002
-0.841002
0.0182427
0.0182427
216.05
216.05
-5.12572
-5.12572
-4.04105
-4.04105
679.369
679.369
-2.55956
-2.55956
-4.25071
-4.25071
-1.4479
-1.4479
-1.81259
-1.81259
-2.10922
-2.10922
7.21797
7.21797
0.110092
0.110092
3.17436
3.17436
-4.55088