/*--------------------------------*- C++ -*----------------------------------*\
  =========                 |
  \\      /  F ield         | OpenFOAM: The Open Source CFD Toolbox
   \\    /   O peration     | Website:  https://openfoam.org
    \\  /    A nd           | Version:  8
     \\/     M anipulation  |
\*---------------------------------------------------------------------------*/
FoamFile
{
    version     2.0;
    format      ascii;
    class       volScalarField;
    location    "0.05";
    object      p_rgh;
}
// * * * * * * * * * * * * * * * * * * * * * * * * * * * * * * * * * * * * * //

dimensions      [1 -1 -2 0 0 0 0];

internalField   nonuniform List<scalar> 
1924
(
1.38903
1.41604
0.930545
0.897505
1.32125
0.710081
0.604295
0.485256
0.372543
1.06197
0.263581
0.165674
0.96354
0.00892938
-0.168619
-0.132776
0.930004
-0.127236
1.43857
-0.244669
1.10502
0.61947
0.83939
-0.486242
0.596696
0.479369
0.471939
1.18001
1.1589
2039.07
0.844996
0.569264
1.27779
0.899796
1.17293
0.809303
0.566306
1.12492
2044.07
0.873924
0.534782
1.03703
0.511947
0.862873
786.58
1.0937
1.4533
791.403
1.41475
1.21521
0.853833
0.992009
0.643714
0.864077
1.00916
1.16978
1.481
120.667
1.32929
0.303438
0.852314
-0.0119803
0.87566
1956.43
0.843054
43.6801
0.182215
0.78797
1.08754
0.881633
1.05896
0.016998
1999.83
2077.45
2140.79
0.986998
570.91
2171.91
1893.13
0.857814
2269.54
0.437968
1904.36
1.08862
1.34758
0.766779
0.889251
-0.181893
1.31081
1.08032
0.218245
0.413555
1.00494
0.93336
1.0225
0.837166
1.58376
2297.93
0.335407
1.0179
0.917559
1.03338
0.338309
0.385168
0.896476
2309.2
0.91497
0.893274
0.304308
0.953587
6.09552
1.0162
1.17915
1946.87
1975.28
1.15092
0.895972
-0.117231
0.685056
2019.2
1.38102
2.77174
1.13654
1.12838
0.124456
0.821618
0.957475
2232.57
0.947563
1001.36
691.192
0.89659
0.999382
1937.23
0.981733
0.866072
1.05486
1.0037
-0.558158
1.12929
2.05603
0.108328
66.2075
1.24483
0.759917
1152.65
0.859927
1.02764
0.277338
0.679346
1906.1
2.96243
0.953943
0.784651
0.720864
0.787544
2.7442
1.0357
1.69807
1855.68
1985
0.996509
0.756841
2.79692
1840.08
0.82686
0.741716
2.59926
2097.68
0.891197
1.23193
0.58114
2360.55
0.362361
1.12355
0.817847
1987.66
1.06712
0.798522
0.640795
0.689037
-0.247682
2090.09
0.707328
1.48986
2.0498
0.926025
0.620544
2158.77
2006.15
0.854361
0.520992
478.608
0.602447
0.653849
3.76512
0.552298
0.788556
0.755029
0.78605
1.29557
1.48216
0.788945
0.389913
1.27229
0.662886
0.486922
0.918936
0.981082
1.01898
1.71784
0.876126
-0.572862
0.621108
0.596708
2245.41
0.280051
0.822335
0.436353
2274.3
0.786905
1873.84
0.744144
-0.492322
0.313473
0.531514
0.579213
2492.49
0.561235
0.759587
1.0592
0.27288
0.727144
1.04783
0.487426
1910.06
-0.757354
0.323941
0.697961
24.9441
-0.245348
0.671766
-0.846575
0.889664
1332.07
0.986528
0.186293
1.1116
2141.44
2451.42
11.0943
50.7807
0.531672
0.803651
2235.83
-0.489895
0.460715
0.655892
0.754581
0.262311
0.712822
0.648185
0.355103
2189.98
0.550157
2182.37
1.01739
2383.05
1.00382
1.86502
0.757749
1883.83
1.16192
0.602487
0.261564
68.5377
0.0914823
0.470246
0.772214
0.729819
1.35929
309.841
0.254239
0.468027
1.41746
2053.49
255.777
413.827
0.159529
0.64808
0.591031
2095.2
0.428168
-0.784583
1.18061
1814.31
-0.426366
0.880026
2353.19
-0.711566
643.547
0.699465
-1.08217
0.259368
-0.037253
0.549443
0.987344
-1.18608
0.634532
1792.75
0.944658
0.69264
0.443241
0.626164
2316.22
0.966598
0.681663
0.0797732
0.543328
0.634227
2156.83
0.733845
0.649999
1856.92
0.494145
2629.26
0.61136
0.583007
0.895197
-0.64872
0.705173
0.17741
0.634322
-0.167049
2291.67
0.414428
0.271157
0.477244
0.380161
0.579719
2586.64
1919.38
0.58484
0.852198
-0.363204
0.0077961
1.15365
0.101407
0.687163
0.52933
0.503097
403.808
1844.44
-1.00923
0.947439
2504.03
2.12123
0.0176314
0.641789
0.833561
0.375238
-0.676667
-1.09566
0.224785
0.519537
0.515592
0.596933
0.732394
0.363345
0.435285
-1.28467
0.60556
0.58981
-0.374478
0.407962
1.13451
-0.606034
-0.312726
0.543646
0.0705559
0.013172
2465.32
0.589548
0.554425
0.707569
-1.47596
2260.45
0.196663
0.429623
0.450057
1877.44
0.615101
0.551775
0.144629
0.350025
1.00646
0.458851
0.556646
340.213
-0.0960626
1257.06
2399.07
0.844122
0.962005
2.51016
0.249344
-1.33116
0.114735
0.61901
0.475574
0.364763
0.622822
-0.0779939
0.374583
0.307688
0.264127
179.314
-0.927901
0.730225
0.952125
-1.01899
0.710724
-1.46149
0.906251
0.504179
-1.24635
2392.2
2079.57
0.578578
0.361254
0.222776
2241.21
0.327639
0.636997
0.327226
0.38183
-1.34532
0.989899
0.320971
0.517808
0.685202
0.417102
0.529431
1767.39
0.0657715
1708.18
0.328161
2365.28
0.532269
0.179482
-0.286097
0.588141
0.477162
-1.48031
0.434224
0.494961
-1.41821
-0.513755
0.642202
0.000915348
2626.83
0.5412
0.923324
0.662909
0.818373
0.15375
0.105987
0.297242
0.237426
1876.33
0.463301
0.605052
2201.94
-1.54049
0.706373
2591.79
1996.73
-0.057243
0.0403187
-0.0978433
0.312739
0.253401
0.250396
0.0776537
0.552112
0.477845
0.375711
-0.369383
0.323124
2477.92
0.975494
0.343175
0.612583
0.611428
-1.22353
-1.37823
0.00535212
0.209067
0.393208
1839.55
-1.33
-0.455119
0.687808
0.503272
0.898068
0.248413
-0.835857
0.423314
0.571422
-1.42283
2516.14
-1.19789
0.184435
0.457162
0.143243
0.116831
0.515367
0.477812
0.179796
-0.0823205
0.625931
-0.758258
721.514
-1.55309
0.408155
0.441869
2302.82
0.827695
0.438463
0.250742
0.652244
-0.117987
0.580303
0.756862
0.81105
0.0732309
0.242514
0.686108
0.897126
0.465203
0.536948
1882.53
0.833003
2479.4
-1.54271
0.337603
2115.8
1922.61
0.0376649
24.1059
0.355056
0.234007
-0.216126
0.596549
0.384723
0.739157
0.809911
0.831249
1786.37
2031.87
0.478459
0.631885
0.947298
0.212926
0.667546
0.741481
2063.27
0.555549
2175.94
0.546964
-1.58061
0.303969
0.400526
0.173943
2411.77
0.109826
0.77934
0.862833
-1.44685
0.705625
0.501853
-0.0229202
0.10906
0.151656
0.824936
0.818872
-1.17446
0.696771
-2.22904
1905.06
0.428068
0.603615
1.6965
0.816619
0.819754
-1.5725
0.0853188
2388.23
0.0484828
0.655769
0.828461
-1.07076
0.250508
1920.09
0.565326
-0.0998767
0.426536
2631.04
0.737384
0.692251
0.441988
-0.420838
0.762505
2534.95
0.513006
0.0108423
0.393211
0.787146
0.815393
1887.36
-1.56358
-3.84667
0.328255
0.466764
0.17172
2272.79
0.792952
-0.0174702
0.391987
0.730906
-0.0984481
0.348714
2459.62
0.672598
0.573745
0.817916
0.364655
1739.79
0.318924
-1.7085
0.236207
0.201809
0.533323
0.392362
0.252924
-0.665447
0.478807
-0.501295
0.301047
0.666867
0.616879
0.180843
1.07253
0.348206
0.778655
0.143167
0.641605
2597.69
0.406685
0.715025
0.712278
0.801246
2380.35
-1.94292
0.120565
1950.68
0.432272
-0.0884333
0.589095
0.542687
0.500677
715.406
0.932296
2628.86
-0.602315
-2.21746
0.0985308
-0.212573
0.80388
0.750804
-1.46817
-1.34489
0.00888671
0.0444862
0.444982
0.174485
0.0807347
1725.09
-1.57021
0.788513
1947.85
0.211008
0.238735
0.358588
0.622346
-0.963325
0.736375
2525.74
0.511027
0.468023
-1.42398
0.67231
0.330914
0.855801
0.802764
0.31503
0.22539
0.373124
-1.70981
0.560078
0.596093
0.79363
0.206665
1686.52
0.398964
0.378415
0.172248
0.645712
-0.876965
1.42418
2488.94
-0.0536161
2118.64
0.76578
-0.192743
1.17692
1.09283
0.801422
0.777789
-1.75036
0.152071
0.708825
1818.41
0.479111
0.0199788
0.41205
0.0576277
0.284622
-0.0184949
0.6616
0.795021
0.115022
-3.4732
0.840101
0.0872255
1762.22
0.530151
0.752648
0.568083
-1.86968
0.435839
0.240906
0.0316996
1851.28
1852.87
0.338582
2094.79
0.795352
1396.64
-0.0460952
2214.32
0.0933678
-0.48895
-1.90403
0.447485
0.728166
0.367289
0.499611
0.775332
0.326962
-0.117323
0.341475
1768.06
0.197813
0.828453
-1.50517
0.539005
0.38054
0.763895
0.228882
0.680784
2636.43
0.128863
0.919302
-0.465062
2312.91
-0.33293
0.299835
-1.1463
1867.18
0.715389
0.632815
-1.25052
0.179476
0.469001
-1.67634
-1.62884
0.880497
0.283777
0.609047
0.908861
0.756353
0.404605
2014.82
740.133
-0.555498
1882.46
-0.107863
0.14572
0.509293
2424.14
-1.68302
1818.49
0.826282
0.583061
0.742992
-0.0404873
0.780748
0.416599
0.672708
0.661996
0.300902
-0.78827
0.771175
0.0548596
-1.81882
0.479302
0.0160365
0.12598
0.731391
-0.208985
-1.81353
0.555711
0.337514
0.438755
0.350764
2601.65
-0.034465
-1.83555
1.79012
0.017636
0.810801
0.312147
0.374759
2.31217
0.637255
0.297868
0.449519
-0.0849972
0.614844
0.0352553
0.0900996
0.75355
2151.57
-0.192305
0.219987
0.652257
0.527492
0.782952
2527.88
-0.0083911
-0.716577
0.203504
2185.1
0.679653
0.172742
0.77514
0.3869
0.743306
0.709508
-1.97227
0.58986
0.695265
0.148101
0.498668
2127.62
-3.58148
0.698771
1.44405
0.270402
1936.62
0.563468
-0.0754913
2281.42
0.245269
0.409301
0.154964
-0.198716
0.0693622
0.0318582
0.469732
-1.98161
1.41424
-0.613455
-1.35849
-1.46433
-1.59114
-0.143352
0.670616
-0.331965
0.724241
2392.78
0.53596
0.783438
0.346612
0.420355
-1.03355
0.760604
0.309906
-0.948287
0.322969
2045.23
-1.71092
0.824011
0.777263
0.121923
0.751763
0.358733
0.507836
2635.47
2488.35
-0.305123
0.441081
1580.2
-1.76549
0.713908
-2.13601
0.29422
-0.0263181
0.285376
0.479407
-0.132698
0.381039
0.625832
0.196451
0.824165
-0.0744184
0.603
0.271156
0.102973
941.238
0.860152
-1.89356
0.879322
0.793717
0.224438
0.451124
0.180444
0.735331
-0.219581
0.653669
0.392209
1818.31
0.578208
-0.0110869
1.38156
0.686475
1.1678
0.726117
-0.116573
1705.6
-2.12893
0.552198
-0.305778
0.764693
0.150273
-0.674108
0.413104
0.320428
0.757222
-2.18421
0.525312
2597.51
0.332378
-0.446842
1961.6
0.236034
0.297491
0.0301172
0.905357
-0.204178
0.284811
0.670667
0.497845
0.354291
0.0675393
0.423367
1816.63
1872.09
0.608992
0.646307
0.133115
-2.28254
0.470238
0.585056
2273.53
0.630689
-0.0374263
-0.0659345
0.708713
0.365421
0.743281
0.644884
-0.106655
0.559807
0.79589
-0.319578
-0.506437
-1.47526
1787.56
0.442857
0.735236
-0.169465
0.217181
-1.57156
-1.62372
0.202751
0.260147
0.533522
0.386171
-1.14843
-0.594757
-1.24316
1.20445
-4.20126
-2.44229
0.175296
0.506634
0.100805
1934.3
1932.62
1680.87
0.662601
-1.73828
0.00835709
0.766435
0.760481
0.479428
-0.637188
1802.36
0.396503
0.685364
-0.296419
-0.237641
0.0474313
-0.158855
0.329331
-1.9483
0.296407
0.308021
0.15985
0.452321
-0.876651
0.720187
0.416066
2594.94
-0.258716
0.340275
-0.80358
0.0825992
0.598438
0.274439
0.677961
0.574542
1901.08
0.711824
-2.19706
-0.4454
0.360601
-2.181
0.748455
-0.235566
0.741541
0.425672
0.549491
0.261864
0.130403
0.776233
-0.144764
0.523608
0.370859
2218.92
0.197246
0.497157
1.44556
0.697521
0.620633
-2.62362
0.222192
-0.220534
0.240298
0.470548
-0.101754
2316.24
2130.38
0.390207
0.183348
-0.411854
2522.67
0.113945
0.728634
0.58151
0.444125
0.647368
2439.51
0.306352
0.842767
0.663918
0.285938
-0.0367012
0.316981
0.721391
0.00835301
0.83871
0.829565
-0.220248
0.699996
0.399821
-1.29866
0.557081
0.336664
0.274763
0.690707
-0.195096
-1.39025
-1.51399
0.880677
0.156614
0.531675
2483.15
-2.68691
-0.13395
0.0475112
-0.318567
0.505689
0.60469
0.346714
-1.59984
-1.61267
0.745496
0.479378
-0.182437
0.816517
0.750989
0.678208
0.418229
2626.13
0.365589
0.453134
2050.2
1.50846
0.141799
-1.76676
-0.297971
-0.091292
-0.547741
-1.06381
0.707638
0.0823314
1744.85
0.216386
0.252931
0.799597
583.976
0.375083
1.56923
0.734412
0.20386
-2.21889
0.427298
-0.983128
0.625975
0.656761
0.72817
-0.241724
-0.0614387
0.179666
1814.76
1986.06
-0.0132725
0.0282815
0.671741
-0.25318
0.639447
0.233308
0.57195
0.759915
0.393185
0.285514
0.314569
-1.82306
0.547549
0.295712
1836.67
1938.92
-0.168487
1423.27
0.324294
0.522353
0.689948
0.0649071
-0.420914
0.16636
0.595238
0.113205
0.496592
0.34248
1593.13
-2.69014
-0.123753
0.470663
-0.698896
0.716489
-0.238365
0.86678
1650.27
-0.216835
0.402194
-1.37641
1.39092
1.20032
0.266123
0.351734
0.444893
1688.61
-0.392672
0.71003
0.684207
0.840316
-1.78883
-1.45203
0.369292
0.255206
-1.21203
-0.15601
-0.111666
-0.203251
0.617121
0.0974954
0.579196
-0.760118
-0.0575946
0.140514
0.732547
0.737435
-0.323615
0.419609
0.199785
0.55525
1726.86
0.22161
0.530377
-0.080544
0.504934
0.0304841
1908.08
-1.48337
1764.03
1320.8
0.187837
-0.0105611
0.479168
0.782232
1737.27
0.378123
0.699189
0.659391
0.453454
0.601952
-1.12933
0.294473
-1.56755
0.722618
0.673315
-1.49511
0.321098
-0.30479
0.303773
0.643243
0.717096
0.846946
0.0667166
-0.140561
0.74528
-0.0312554
-2.36447
0.276637
-0.270192
0.164553
0.330003
-0.0734722
0.428118
0.0120137
1543.94
0.126401
0.694187
-0.187107
-0.255105
0.23745
0.395122
2185.6
0.266934
0.346812
1493.25
-0.541021
-0.025581
-1.87451
0.0501256
2282.36
0.623244
-0.235104
2314.48
2391.72
0.893877
0.355359
-1.30026
2015.74
0.684832
-0.0944067
0.151907
0.839579
-0.173107
0.0168508
-0.0449959
0.403474
0.217157
2100.32
-0.12674
-1.22836
0.667769
0.0987976
-0.503853
0.653052
0.206431
0.248079
0.701003
-1.38222
0.706739
-0.407992
2510.67
2596.84
1510.35
0.636134
-0.0837523
0.765503
0.185552
-0.000620042
1665.11
0.0838965
0.371722
-0.220553
-0.922491
0.840726
2056.8
-0.0362564
-0.28587
-2.19306
1.52431
1.5511
0.72176
1630.81
-0.0544147
0.725969
0.30161
-0.331319
0.28529
0.0542876
-0.313929
0.174237
1.65049
0.232155
1960.84
2023.31
-0.383866
-0.270495
1629.97
-1.60001
0.276498
0.680112
0.310074
0.593965
0.693888
0.570787
0.12713
0.732601
1668.26
1768.52
0.546539
-0.673586
1490.19
0.0386349
0.325968
1839.29
0.521518
0.00718877
0.49594
-1.44081
1.45115
0.470212
0.379813
1.46434
-0.00881615
-0.103783
1134.84
-0.74605
0.444649
0.250471
0.713088
0.113787
0.259742
-0.153145
0.334133
-0.249794
0.152045
0.67839
0.203687
0.615857
-0.201317
1787.92
0.0874123
-1.2667
0.22233
0.708282
0.842687
0.750283
1597.68
0.419563
-0.854169
-1.05708
0.193587
0.349673
0.0734091
0.690053
0.0455033
0.140131
-1.92759
-1.32782
-0.341169
0.700306
-0.0568391
-1.34095
0.0311911
-0.299424
-0.324469
0.173807
0.635279
0.236004
0.284143
0.652344
0.116635
-0.626536
-1.40938
-0.136956
-1.15329
-0.38144
0.395258
-0.232632
0.260722
0.29209
0.667175
0.219119
0.357406
-0.184554
0.163196
1878.6
0.24481
-1.42933
0.268956
-0.505911
0.21013
-0.281847
1694.05
-0.402495
1688.14
-0.475526
0.697476
0.104144
1405.86
-0.0887117
0.00473963
-2.10359
0.306939
1599.78
0.232076
0.0793986
1665.59
0.722045
0.736914
0.976341
0.192606
-1.08861
-0.987356
1720.87
-1.20439
-1.14822
0.679651
0.142304
0.716687
0.208603
0.247055
0.0666968
0.224027
0.314633
0.713198
-1.30708
0.372017
0.18319
0.254753
-1.25117
0.268799
1732.14
0.601733
-0.351318
1792.02
0.578985
0.164704
0.555091
0.200289
-0.40251
0.53032
0.131198
0.0428711
0.504926
0.221941
-1.1683
0.689686
0.479241
0.453613
0.276175
0.659474
0.214649
-0.383687
0.329196
0.23553
-0.333146
1733.25
1.44235
1.42548
0.428359
0.289866
0.109273
0.184049
-0.234668
0.242632
1667.9
-0.137671
0.255618
0.200509
-0.185808
0.697162
0.705752
1749.24
0.403781
-0.284577
0.154868
0.725606
-1.20637
0.23278
0.21423
-1.08879
0.262375
0.623222
0.641723
0.0980398
0.175381
0.657999
-0.458453
0.350102
0.22641
0.336491
1535.27
-0.0415724
-0.0104172
0.076953
0.70154
-1.28288
-0.483888
0.207657
0.192925
-0.753762
-1.1195
0.274849
-0.613685
0.244574
0.671981
-0.724586
-1.0818
0.297022
0.703476
-1.02694
0.38017
-0.576751
1614.79
1821.81
1754.79
-1.04241
0.250715
0.225343
0.194909
0.0293251
0.178111
1629.96
0.713724
-1.10845
0.219717
-0.57296
-0.470944
0.261966
-0.972274
0.20891
-0.336437
0.281415
-1.21158
-1.16752
-1.33392
0.683586
0.135495
-1.16014
0.235746
-0.931462
0.310472
-0.449494
0.158367
-0.406579
1710.17
-0.681999
0.357792
0.69271
0.241221
-0.254073
0.716487
-0.665269
0.20339
0.188408
-0.10798
0.251235
0.0648471
0.107099
-0.543106
-0.874022
-0.156348
-1.10163
0.267895
-0.204887
-0.809094
0.220243
1778.11
0.233985
-0.387517
0.229238
-1.18895
0.293665
-0.784136
0.702192
0.698929
-0.631557
1721.85
0.125599
-0.755224
-0.988379
-0.92118
0.215647
0.170563
-0.304498
-0.947855
-0.546038
0.256503
-0.875575
0.24269
-1.03165
1708.93
1685.99
0.229029
-0.830486
-0.996325
0.709649
0.831165
0.193578
0.0964056
-0.624284
-0.465859
0.207676
-0.719013
0.329741
0.33689
0.225302
0.236339
0.247291
0.278883
-1.17954
-1.12759
0.317252
-1.03114
0.176638
0.219056
0.235367
0.7069
0.240282
-0.701705
0.266203
1730.42
1745.9
-0.521774
0.232461
-0.903272
-0.391243
-0.357092
-0.597236
-0.836403
0.149692
-0.868585
0.284451
-0.920021
-0.799405
0.22782
-1.05915
0.255675
-1.15917
0.299858
0.202758
-0.951453
0.187645
0.133595
0.12422
-0.773525
-1.19262
-0.672877
-0.95855
0.247344
-0.44567
0.215105
0.234027
0.241231
0.294385
0.279679
0.284842
-0.529554
0.709674
-0.596852
0.224796
0.237246
-0.743985
-0.884976
-0.985142
-0.471784
-0.449486
-0.511128
0.156704
-0.89641
0.16963
0.231909
-0.859445
-0.664377
-0.836143
0.27111
-0.918786
0.236471
0.237677
0.239424
-0.729139
-0.786656
0.259887
-0.508042
-0.807358
0.250852
-0.866632
-0.850072
0.244038
-1.14032
-0.756639
-0.772769
-0.802306
-0.834852
-0.764704
1728.56
1723.54
-0.832443
1724.32
-0.832642
1715.75
0.2603
0.256652
0.148552
0.267082
0.2715
0.300264
0.248458
0.251307
0.31766
0.311117
-0.63976
-0.66147
-0.412733
-0.720744
-0.701248
-0.597926
-0.5752
-0.813188
0.238194
0.238629
0.239079
0.240245
0.244593
0.242568
-0.533975
-0.814591
2074.18
-0.705974
-0.574088
-0.641125
0.707762
0.70534
1658.14
1.44309
1574.85
0.70414
0.704868
0.662557
0.848583
0.702671
0.704359
2.03728
2119.69
1542.07
1615.11
0.70386
1444.1
0.645368
1.88284
1674.59
0.672042
1112.1
0.96501
0.808256
1606.11
0.837568
0.835967
3.1242
2.36284
-14.8276
2.23989
2.32093
2.1668
1780.04
1528.48
1429.66
1.47548
1.49767
1.48917
1302.35
0.799011
0.652756
1.46224
0.673054
0.835744
1426.31
1526.13
743.525
1.55986
2186.56
1.47808
2.37223
2.29135
1.45721
53.0007
2.35788
309.602
1.87014
2.15551
2.19753
2.51912
2.39289
1771.28
0.777577
1.49821
2242.76
1.75186
1.48553
0.896431
1.48941
1.07568
1.46967
0.769595
1.47431
1.05959
0.927926
1.50142
1.15093
1.46984
1.05741
1.45834
-1.61488
1.04592
0.749764
0.837476
1.44905
-1.14324
1.45888
0.887924
1.45499
0.913014
0.74248
-0.749787
1.39868
1.21071
2.53756
0.721591
-2.27281
1.21091
-1.51235
0.719153
1.26582
0.701837
-1.5471
1.52484
0.681928
1.48043
1.5257
1.50733
0.724281
0.698347
2.43951
2.44033
-0.857967
)
;

boundaryField
{
    patch0
    {
        type            fixedFluxPressure;
        gradient        uniform 0;
        value           nonuniform List<scalar> 
4010
(
1.38903
1.38903
1.41604
1.41604
0.930545
0.930545
0.897505
0.897505
1.32125
1.32125
0.710081
0.710081
0.604295
0.604295
0.485256
0.485256
0.372543
0.372543
1.06197
1.06197
0.263581
0.263581
0.165674
0.165674
0.96354
0.96354
0.00892938
0.00892938
-0.168619
-0.168619
-0.132776
-0.132776
0.930004
0.930004
-0.127236
-0.127236
1.43857
1.43857
-0.244669
-0.244669
1.10502
1.10502
0.61947
0.61947
0.83939
0.83939
-0.486242
-0.486242
0.596696
0.596696
0.479369
0.479369
0.471939
0.471939
1.18001
1.18001
1.1589
1.1589
2039.07
2039.07
0.844996
0.844996
0.569264
0.569264
1.27779
1.27779
0.899796
0.899796
1.17293
1.17293
0.809303
0.809303
0.566306
0.566306
1.12492
1.12492
2044.07
2044.07
0.873924
0.873924
0.534782
0.534782
1.03703
1.03703
0.511947
0.511947
0.862873
0.862873
786.58
786.58
1.0937
1.0937
1.4533
1.4533
791.403
791.403
1.41475
1.41475
1.21521
1.21521
0.853833
0.853833
0.992009
0.992009
0.643714
0.643714
0.864077
0.864077
1.00916
1.00916
1.16978
1.16978
1.481
1.481
120.667
120.667
1.32929
1.32929
0.303438
0.303438
0.852314
0.852314
-0.0119803
-0.0119803
0.87566
0.87566
1956.43
1956.43
0.843054
0.843054
43.6801
43.6801
0.182215
0.182215
0.78797
0.78797
1.08754
1.08754
0.881633
0.881633
1.05896
1.05896
0.016998
0.016998
1999.83
1999.83
2077.45
2077.45
2140.79
2140.79
0.986998
0.986998
570.91
570.91
2171.91
2171.91
1893.13
1893.13
0.857814
0.857814
2269.54
2269.54
0.437968
0.437968
1904.36
1904.36
1.08862
1.08862
1.34758
1.34758
0.766779
0.766779
0.889251
0.889251
-0.181893
-0.181893
1.31081
1.31081
1.08032
1.08032
0.218245
0.218245
0.413555
0.413555
1.00494
1.00494
0.93336
0.93336
1.0225
1.0225
0.837166
0.837166
1.58376
1.58376
2297.93
2297.93
0.335407
0.335407
1.0179
1.0179
0.917559
0.917559
1.03338
1.03338
0.338309
0.338309
0.385168
0.385168
0.896476
0.896476
2309.2
2309.2
0.91497
0.91497
0.893274
0.893274
0.304308
0.304308
0.953587
0.953587
6.09552
6.09552
1.0162
1.0162
1.17915
1.17915
1946.87
1946.87
1975.28
1975.28
1.15092
1.15092
0.895972
0.895972
-0.117231
-0.117231
0.685056
0.685056
2019.2
2019.2
1.38102
1.38102
2.77174
2.77174
1.13654
1.13654
1.12838
1.12838
0.124456
0.124456
0.821618
0.821618
0.957475
0.957475
2232.57
2232.57
0.947563
0.947563
1001.36
1001.36
691.192
691.192
0.89659
0.89659
0.999382
0.999382
1937.23
1937.23
0.981733
0.981733
0.866072
0.866072
1.05486
1.05486
1.0037
1.0037
-0.558158
-0.558158
1.12929
1.12929
2.05603
2.05603
0.108328
0.108328
66.2075
66.2075
66.2075
1.24483
1.24483
1.24483
0.759917
0.759917
1152.65
1152.65
0.859927
0.859927
1.02764
1.02764
0.277338
0.277338
0.679346
0.679346
1906.1
1906.1
2.96243
2.96243
2.96243
0.953943
0.953943
0.784651
0.784651
0.720864
0.720864
0.787544
0.787544
2.7442
2.7442
1.0357
1.0357
1.69807
1.69807
1855.68
1855.68
1985
1985
0.996509
0.996509
0.756841
0.756841
2.79692
2.79692
1840.08
1840.08
0.82686
0.82686
0.741716
0.741716
2.59926
2.59926
2097.68
2097.68
0.891197
0.891197
1.23193
1.23193
0.58114
0.58114
2360.55
2360.55
0.362361
0.362361
1.12355
1.12355
0.817847
0.817847
1987.66
1987.66
1.06712
1.06712
0.798522
0.798522
0.640795
0.640795
0.689037
0.689037
-0.247682
-0.247682
2090.09
2090.09
0.707328
0.707328
1.48986
1.48986
2.0498
2.0498
0.926025
0.926025
0.620544
0.620544
2158.77
2158.77
2006.15
2006.15
0.854361
0.854361
0.520992
0.520992
478.608
478.608
0.602447
0.602447
0.653849
0.653849
3.76512
3.76512
3.76512
0.552298
0.552298
0.788556
0.788556
0.755029
0.755029
0.78605
0.78605
1.29557
1.29557
1.48216
1.48216
0.788945
0.788945
0.389913
0.389913
1.27229
1.27229
0.662886
0.662886
0.486922
0.486922
0.918936
0.918936
0.981082
0.981082
1.01898
1.01898
1.01898
1.71784
1.71784
0.876126
0.876126
-0.572862
-0.572862
0.621108
0.621108
0.596708
0.596708
2245.41
2245.41
0.280051
0.280051
0.822335
0.822335
0.436353
0.436353
2274.3
2274.3
0.786905
0.786905
1873.84
1873.84
0.744144
0.744144
-0.492322
-0.492322
0.313473
0.313473
0.531514
0.531514
0.579213
0.579213
2492.49
2492.49
0.561235
0.561235
0.759587
0.759587
1.0592
1.0592
0.27288
0.27288
0.727144
0.727144
1.04783
1.04783
0.487426
0.487426
1910.06
1910.06
1910.06
-0.757354
-0.757354
0.323941
0.323941
0.697961
0.697961
24.9441
24.9441
24.9441
-0.245348
-0.245348
0.671766
0.671766
-0.846575
-0.846575
0.889664
0.889664
1332.07
1332.07
0.986528
0.986528
0.186293
0.186293
1.1116
1.1116
2141.44
2141.44
2451.42
2451.42
11.0943
11.0943
50.7807
50.7807
0.531672
0.531672
0.803651
0.803651
2235.83
2235.83
-0.489895
-0.489895
0.460715
0.460715
0.655892
0.655892
0.754581
0.754581
0.262311
0.262311
0.712822
0.712822
0.648185
0.648185
0.355103
0.355103
2189.98
2189.98
0.550157
0.550157
2182.37
2182.37
1.01739
1.01739
2383.05
2383.05
1.00382
1.00382
1.86502
1.86502
0.757749
0.757749
1883.83
1883.83
1.16192
1.16192
0.602487
0.602487
0.261564
0.261564
68.5377
68.5377
0.0914823
0.0914823
0.470246
0.470246
0.772214
0.772214
0.729819
0.729819
1.35929
1.35929
309.841
309.841
309.841
0.254239
0.254239
0.468027
0.468027
1.41746
1.41746
2053.49
2053.49
255.777
255.777
413.827
413.827
0.159529
0.159529
0.64808
0.64808
0.591031
0.591031
2095.2
2095.2
0.428168
0.428168
-0.784583
-0.784583
1.18061
1.18061
1814.31
1814.31
-0.426366
-0.426366
0.880026
0.880026
2353.19
2353.19
-0.711566
-0.711566
643.547
643.547
643.547
0.699465
0.699465
-1.08217
-1.08217
0.259368
0.259368
-0.037253
-0.037253
0.549443
0.549443
0.987344
0.987344
-1.18608
-1.18608
0.634532
0.634532
1792.75
1792.75
0.944658
0.944658
0.69264
0.69264
0.443241
0.443241
0.626164
0.626164
2316.22
2316.22
0.966598
0.966598
0.681663
0.681663
0.0797732
0.0797732
0.543328
0.543328
0.634227
0.634227
2156.83
2156.83
0.733845
0.733845
0.649999
0.649999
1856.92
1856.92
0.494145
0.494145
2629.26
2629.26
0.61136
0.61136
0.583007
0.583007
0.895197
0.895197
-0.64872
-0.64872
0.705173
0.705173
0.17741
0.17741
0.634322
0.634322
-0.167049
-0.167049
2291.67
2291.67
0.414428
0.414428
0.271157
0.271157
0.477244
0.477244
0.380161
0.380161
0.579719
0.579719
2586.64
2586.64
1919.38
1919.38
0.58484
0.58484
0.852198
0.852198
-0.363204
-0.363204
0.0077961
0.0077961
1.15365
1.15365
0.101407
0.101407
0.687163
0.687163
0.52933
0.52933
0.503097
0.503097
403.808
403.808
1844.44
1844.44
-1.00923
-1.00923
0.947439
0.947439
2504.03
2504.03
2.12123
2.12123
0.0176314
0.0176314
0.641789
0.641789
0.833561
0.833561
0.375238
0.375238
-0.676667
-0.676667
-1.09566
-1.09566
0.224785
0.224785
0.519537
0.519537
0.515592
0.515592
0.596933
0.596933
0.732394
0.732394
0.363345
0.363345
0.435285
0.435285
-1.28467
-1.28467
0.60556
0.60556
0.58981
0.58981
-0.374478
-0.374478
0.407962
0.407962
1.13451
1.13451
-0.606034
-0.606034
-0.312726
-0.312726
0.543646
0.543646
0.0705559
0.0705559
0.013172
0.013172
2465.32
2465.32
0.589548
0.589548
0.554425
0.554425
0.707569
0.707569
-1.47596
-1.47596
2260.45
2260.45
0.196663
0.196663
0.429623
0.429623
0.450057
0.450057
1877.44
1877.44
0.615101
0.615101
0.551775
0.551775
0.144629
0.144629
0.350025
0.350025
1.00646
1.00646
1.00646
0.458851
0.458851
0.556646
0.556646
340.213
340.213
-0.0960626
-0.0960626
1257.06
1257.06
2399.07
2399.07
0.844122
0.844122
0.962005
0.962005
2.51016
2.51016
2.51016
0.249344
0.249344
-1.33116
-1.33116
0.114735
0.114735
0.61901
0.61901
0.475574
0.475574
0.364763
0.364763
0.622822
0.622822
-0.0779939
-0.0779939
0.374583
0.374583
0.307688
0.307688
0.264127
0.264127
179.314
179.314
-0.927901
-0.927901
0.730225
0.730225
0.952125
0.952125
-1.01899
-1.01899
0.710724
0.710724
-1.46149
-1.46149
0.906251
0.906251
0.504179
0.504179
-1.24635
-1.24635
2392.2
2392.2
2079.57
2079.57
0.578578
0.578578
0.361254
0.361254
0.222776
0.222776
2241.21
2241.21
0.327639
0.327639
0.636997
0.636997
0.327226
0.327226
0.38183
0.38183
-1.34532
-1.34532
0.989899
0.989899
0.320971
0.320971
0.517808
0.517808
0.685202
0.685202
0.417102
0.417102
0.529431
0.529431
1767.39
1767.39
0.0657715
0.0657715
1708.18
1708.18
1708.18
0.328161
0.328161
2365.28
2365.28
0.532269
0.532269
0.179482
0.179482
-0.286097
-0.286097
0.588141
0.588141
0.477162
0.477162
-1.48031
-1.48031
0.434224
0.434224
0.494961
0.494961
-1.41821
-1.41821
-0.513755
-0.513755
0.642202
0.642202
0.000915348
0.000915348
2626.83
2626.83
0.5412
0.5412
0.923324
0.923324
0.662909
0.662909
0.818373
0.818373
0.15375
0.15375
0.105987
0.105987
0.297242
0.297242
0.237426
0.237426
1876.33
1876.33
0.463301
0.463301
0.605052
0.605052
2201.94
2201.94
-1.54049
-1.54049
0.706373
0.706373
2591.79
2591.79
1996.73
1996.73
-0.057243
-0.057243
0.0403187
0.0403187
-0.0978433
-0.0978433
0.312739
0.312739
0.253401
0.253401
0.250396
0.250396
0.0776537
0.0776537
0.552112
0.552112
0.477845
0.477845
0.375711
0.375711
-0.369383
-0.369383
0.323124
0.323124
2477.92
2477.92
0.975494
0.975494
0.343175
0.343175
0.612583
0.612583
0.611428
0.611428
-1.22353
-1.22353
-1.37823
-1.37823
0.00535212
0.00535212
0.209067
0.209067
0.393208
0.393208
1839.55
1839.55
-1.33
-1.33
-0.455119
-0.455119
0.687808
0.687808
0.503272
0.503272
0.898068
0.898068
0.248413
0.248413
-0.835857
-0.835857
0.423314
0.423314
0.571422
0.571422
-1.42283
-1.42283
2516.14
2516.14
-1.19789
-1.19789
0.184435
0.184435
0.457162
0.457162
0.143243
0.143243
0.116831
0.116831
0.515367
0.515367
0.477812
0.477812
0.179796
0.179796
-0.0823205
-0.0823205
0.625931
0.625931
-0.758258
-0.758258
721.514
721.514
-1.55309
-1.55309
0.408155
0.408155
0.441869
0.441869
2302.82
2302.82
0.827695
0.827695
0.438463
0.438463
0.250742
0.250742
0.652244
0.652244
-0.117987
-0.117987
0.580303
0.580303
0.756862
0.756862
0.81105
0.81105
0.0732309
0.0732309
0.242514
0.242514
0.686108
0.686108
0.897126
0.897126
0.465203
0.465203
0.536948
0.536948
1882.53
1882.53
0.833003
0.833003
2479.4
2479.4
-1.54271
-1.54271
0.337603
0.337603
2115.8
2115.8
1922.61
1922.61
0.0376649
0.0376649
24.1059
24.1059
0.355056
0.355056
0.234007
0.234007
-0.216126
-0.216126
0.596549
0.596549
0.384723
0.384723
0.739157
0.739157
0.809911
0.809911
0.831249
0.831249
1786.37
1786.37
2031.87
2031.87
0.478459
0.478459
0.631885
0.631885
0.947298
0.947298
0.212926
0.212926
0.667546
0.667546
0.741481
0.741481
2063.27
2063.27
0.555549
0.555549
2175.94
2175.94
0.546964
0.546964
-1.58061
-1.58061
0.303969
0.303969
0.400526
0.400526
0.173943
0.173943
2411.77
2411.77
0.109826
0.109826
0.77934
0.77934
0.862833
0.862833
-1.44685
-1.44685
0.705625
0.705625
0.501853
0.501853
-0.0229202
-0.0229202
0.10906
0.10906
0.151656
0.151656
0.824936
0.824936
0.818872
0.818872
-1.17446
-1.17446
0.696771
0.696771
-2.22904
-2.22904
1905.06
1905.06
0.428068
0.428068
0.603615
0.603615
1.6965
1.6965
0.816619
0.816619
0.819754
0.819754
-1.5725
-1.5725
0.0853188
0.0853188
2388.23
2388.23
0.0484828
0.0484828
0.655769
0.655769
0.828461
0.828461
-1.07076
-1.07076
0.250508
0.250508
1920.09
1920.09
0.565326
0.565326
-0.0998767
-0.0998767
0.426536
0.426536
2631.04
2631.04
0.737384
0.737384
0.692251
0.692251
0.441988
0.441988
-0.420838
-0.420838
0.762505
0.762505
2534.95
2534.95
0.513006
0.513006
0.0108423
0.0108423
0.393211
0.393211
0.787146
0.787146
0.815393
0.815393
1887.36
1887.36
-1.56358
-1.56358
-3.84667
-3.84667
0.328255
0.328255
0.466764
0.466764
0.17172
0.17172
2272.79
2272.79
0.792952
0.792952
-0.0174702
-0.0174702
0.391987
0.391987
0.730906
0.730906
-0.0984481
-0.0984481
0.348714
0.348714
2459.62
2459.62
0.672598
0.672598
0.573745
0.573745
0.817916
0.817916
0.364655
0.364655
1739.79
1739.79
0.318924
0.318924
-1.7085
-1.7085
0.236207
0.236207
0.201809
0.201809
0.533323
0.533323
0.392362
0.392362
0.252924
0.252924
-0.665447
-0.665447
0.478807
0.478807
-0.501295
-0.501295
0.301047
0.301047
0.666867
0.666867
0.616879
0.616879
0.180843
0.180843
1.07253
1.07253
0.348206
0.348206
0.778655
0.778655
0.143167
0.143167
0.641605
0.641605
2597.69
2597.69
0.406685
0.406685
0.715025
0.715025
0.712278
0.712278
0.801246
0.801246
2380.35
2380.35
-1.94292
-1.94292
0.120565
0.120565
1950.68
1950.68
0.432272
0.432272
-0.0884333
-0.0884333
0.589095
0.589095
0.542687
0.542687
0.500677
0.500677
715.406
715.406
0.932296
0.932296
2628.86
2628.86
-0.602315
-0.602315
-2.21746
-2.21746
0.0985308
0.0985308
-0.212573
-0.212573
0.80388
0.80388
0.750804
0.750804
-1.46817
-1.46817
-1.34489
-1.34489
0.00888671