/*--------------------------------*- C++ -*----------------------------------*\
  =========                 |
  \\      /  F ield         | OpenFOAM: The Open Source CFD Toolbox
   \\    /   O peration     | Website:  https://openfoam.org
    \\  /    A nd           | Version:  8
     \\/     M anipulation  |
\*---------------------------------------------------------------------------*/
FoamFile
{
    version     2.0;
    format      ascii;
    class       surfaceScalarField;
    location    "0.05";
    object      phi;
}
// * * * * * * * * * * * * * * * * * * * * * * * * * * * * * * * * * * * * * //

dimensions      [0 3 -1 0 0 0 0];

internalField   nonuniform List<scalar> 
2805
(
0.000134674
-0.000272424
0.000137753
0.000471918
-0.000337245
0.000444662
-0.000636992
0.000192329
0.000850706
-0.000406044
0.000259679
0.000212239
0.000715295
0.000135411
0.000928614
-0.000213319
0.000891536
3.70782e-05
0.000938924
-4.73886e-05
-0.00053012
-0.000106871
0.0009297
9.22485e-06
0.000723281
0.000206419
0.00056452
-0.000400759
-0.000163761
0.000921794
-0.000198513
-0.000275021
-0.000263663
0.000538684
-0.000493307
0.000218285
0.000325123
0.000239397
0.000795702
0.000126092
-0.00025611
-1.63146e-05
0.000851387
-5.56852e-05
0.000633681
0.000229343
-0.000863024
0.000285324
-0.000335939
5.06147e-05
4.09488e-05
0.000310685
-0.000351634
0.000514334
0.000337054
0.000273656
1.16684e-05
0.00012281
-0.000294063
0.000171253
0.000332604
-0.000209794
0.000452956
-1.65139e-05
-0.000436442
0.000154073
8.85561e-05
-0.000242629
-3.84795e-05
-0.000736672
0.000775151
-0.00019439
0.000235339
5.47012e-05
0.000218954
-0.000239711
0.000213912
2.57991e-05
0.000412125
-8.7002e-05
0.000321698
0.000131258
0.000279809
3.08765e-05
0.000333849
-0.000279148
-0.000110681
0.000264754
0.000645492
-0.000683972
0.000217735
0.000251026
8.28233e-05
0.000534541
9.91397e-05
-4.30373e-05
-6.91985e-05
-0.000282435
-5.02023e-05
0.000523256
-0.000473054
0.000182492
5.80845e-05
-0.000240577
0.000109935
-2.4172e-05
-8.57626e-05
0.000575703
-0.000231781
-0.000343922
0.000637209
-0.00138379
0.000746582
-0.00131214
0.000697555
0.000614589
-0.0001156
-0.000101136
0.000216735
0.000133782
-0.000224065
-0.000111874
0.000126982
-0.000242582
0.000214246
-0.000231817
1.75716e-05
-0.000208423
-0.000146175
0.000525501
0.000119206
0.000406295
-0.000202477
-8.05126e-05
0.00028299
-0.000282486
0.000213287
-0.000282039
-0.000211267
-1.43229e-05
-0.000268163
-0.000760152
0.000517184
0.000242968
-5.31084e-05
0.000180091
-0.000582384
0.000350603
-0.000281129
0.000339071
-5.79422e-05
0.000312646
-3.28372e-05
0.000271048
0.000224709
-0.000325845
-0.000369915
0.000472121
-0.000102207
-0.000547488
0.000265448
-0.00011466
-0.000883109
0.000146437
-0.000651872
-0.000231236
-0.000395379
0.000382665
1.27141e-05
-0.000355226
-0.000227157
-0.000828679
0.000176806
-0.000850384
0.000506462
0.000210386
0.000124341
-0.000844688
0.000720347
0.000231284
0.00010132
-0.000688417
0.000387663
0.000300754
0.000525567
-0.000296224
-0.000101958
8.04032e-05
0.000232242
0.000102692
-0.000516253
0.000252589
-0.000674935
0.000194335
-0.00056425
-0.000386835
0.000105707
0.000311047
-7.97631e-05
0.00027233
0.000355073
-1.97534e-05
-0.00033532
-0.000228821
0.000423156
7.89891e-05
-0.000132097
-0.000671775
0.000316549
0.00084362
-0.00071928
-2.48804e-05
-0.000177597
-0.000213719
-0.00018166
0.000255862
8.61584e-05
-0.000342021
0.000296746
0.000182518
-0.000207398
0.000221843
8.92044e-05
2.48901e-05
0.000330183
-0.000809981
0.000767569
4.24112e-05
0.000278004
-0.000322319
4.43146e-05
0.000367893
-0.000343003
0.000173356
-0.000253869
0.000252577
-0.00088646
0.000214686
4.48462e-05
0.000226202
0.000148998
0.000235779
-0.000692919
0.000457141
-0.000664275
-0.000186109
0.000431801
-0.000728025
0.000448191
0.00048668
-0.000268394
8.05396e-05
-0.000221021
0.000140481
-0.000891433
7.96929e-05
-0.000181651
-0.00301099
0.0025722
0.00043879
-0.000165468
-0.000132448
0.000212966
0.000126105
-0.000339148
0.000359455
-2.03068e-05
4.6928e-05
0.000335737
-0.000146023
-0.000682656
0.000297423
-0.000986818
0.00230577
-0.00131895
-0.000701946
-0.000184515
0.000364162
0.000286391
-0.000350342
6.39508e-05
-0.000452639
0.000430528
0.00035006
-1.98776e-05
9.6117e-05
0.000168637
-0.000183588
0.000697921
0.000280255
0.000453295
-0.000334522
0.000549333
-0.000549333
-0.000224922
0.000224922
0.000379448
6.87436e-05
-0.00125121
0.000264394
2.87439e-05
0.000258402
-0.000101462
0.000274818
-0.000125061
0.000205601
0.000128074
0.000259589
-0.00301099
0.000420633
-0.000373705
0.000329279
3.48829e-05
0.000514858
0.000341028
1.84267e-05
0.00221869
0.000353507
-0.000173384
-0.000791937
8.99914e-05
-0.000557555
0.000139914
0.000417641
-0.000187699
-0.00050522
0.000299105
0.000398023
-0.00339924
0.000388252
-0.000442433
0.000334369
0.000108064
0.000329754
0.000346253
-5.22488e-06
0.000863657
0.00135504
-0.000694862
-0.00019657
0.000277545
3.03896e-05
0.000183523
0.000495549
1.93089e-05
-0.000696042
-0.000113939
4.42457e-05
0.000244872
0.000373068
-4.71518e-05
-0.000325916
0.000587452
0.000532002
-0.000634208
-0.000139329
0.000170205
0.000393684
4.33853e-06
0.000313225
-0.00032041
7.18424e-06
0.000162145
0.000324535
-0.000792191
0.000577657
0.000214534
0.000349757
-3.50396e-06
-0.000478805
-0.000904987
0.000773686
-0.000797858
6.41646e-05
0.000356469
-0.000319917
0.000282005
3.79125e-05
-0.000879377
-0.000724094
0.000218874
0.000370269
-0.000341525
0.000532627
-0.000667055
-0.000124882
0.000412993
0.000327869
2.18878e-05
-0.00339924
-0.000316585
0.00024594
7.06449e-05
0.000318455
5.46128e-05
0.000339152
-2.06964e-05
0.000352834
-0.000298221
-0.000199123
0.000339773
-1.00189e-05
-5.10744e-05
0.000583702
-6.69188e-06
0.000462806
-4.9813e-05
0.000410854
-0.000346689
-0.000115303
-0.000350342
-0.00323515
-0.000164093
0.00032186
-0.000185782
0.000710672
-0.00052489
0.000362473
-3.46037e-05
-3.45801e-05
0.000621547
0.000163538
-0.000265
0.000323117
0.000411731
-0.000692723
1.00667e-05
0.000341544
-0.000256801
0.000334547
0.000350823
-0.000536605
0.000592927
0.00030712
-6.11802e-05
-0.000733971
6.69162e-05
0.00061772
-0.000740376
0.000122657
0.00030169
6.07829e-05
5.79537e-05
0.00029488
-0.000167867
-6.39507e-05
0.000105677
0.00015984
-0.000265517
1.8742e-05
0.000204626
0.000102494
0.000139914
0.00039521
0.000315462
0.00052005
-0.000108319
0.000334794
-2.46753e-07
-0.00323515
0.000431424
-0.000269279
0.000284233
-0.000290925
0.000943469
-0.000548259
7.24526e-05
0.000338401
0.000940897
-0.000417641
0.000307853
-0.000139877
0.000732803
0.00056142
-0.000615385
-7.83224e-05
-0.000391563
-0.00199169
-0.00124345
0.000370992
-6.93022e-05
0.000311841
-0.000718171
-0.000161206
-0.000293936
0.000644759
0.000218936
-4.7683e-05
-4.17912e-06
0.000265397
-0.000261217
0.000320848
0.000380173
0.000317344
0.000356682
-0.000122511
0.000166757
6.16168e-06
0.00022365
-4.69513e-06
0.000487075
-0.000718312
0.000353519
-0.000254379
0.000582529
-0.000696467
0.000316676
0.000463571
0.000324543
-0.00026659
-0.000314359
-5.70546e-05
-0.000256335
0.000232516
2.38187e-05
-9.38871e-05
0.000199564
-0.000173714
-0.000670974
0.00053429
0.000291912
-8.72857e-05
0.000346724
0.000313622
-0.00011943
-0.00199169
-0.000226996
0.000262801
0.000108191
-6.06597e-05
-0.000120992
-0.00066238
-7.1591e-05
-0.00230577
0.000314075
0.000587788
-0.000207614
0.000280054
0.000321539
3.51427e-05
-0.000577579
-0.000106393
0.000162847
0.000129065
-0.000467094
0.000782556
-0.000113436
-0.000160246
0.000494615
0.000236309
-0.000530245
0.000402485
-0.000330033
-0.000110194
0.000177665
0.000346477
0.000873305
7.01633e-05
-9.85036e-05
0.000262041
-0.000245516
0.000779806
-0.000248587
0.000199124
4.94631e-05
0.000468514
-0.000114995
0.00101529
-0.000141981
9.06142e-06
-0.000729854
-3.88361e-05
8.78368e-05
-0.000212898
0.000372719
-0.000109918
-0.000136311
0.00021727
-8.09595e-05
-0.000843053
0.000304753
0.000324528
0.000342271
0.000382322
0.000289924
-9.05041e-05
6.01146e-05
0.000264429
0.000350815
0.000309723
-0.000469969
-0.000281947
7.21531e-05
0.000682474
-0.000748706
6.62321e-05
0.000245474
-1.6071e-05
0.000155377
-0.000750453
8.80721e-05
2.26978e-05
-0.000223875
0.000165932
4.38721e-05
-0.000180183
0.000724121
0.000642356
-0.000632289
0.000269662
-0.000106815
0.000189103
0.000299458
8.28634e-05
0.000214555
0.000158164
0.000385958
-5.79019e-05
0.000142781
-0.000198059
0.000209728
9.54266e-05
0.000307059
0.000565968
-0.000329659
-0.000159286
0.000424734
0.000378541
-0.000252436
-0.000104143
0.000191979
-0.000247191
0.000204154
-0.000399503
0.000507567
0.000793067
-1.05106e-05
0.000391692
0.000634304
-0.000712626
-0.000824073
0.0015315
-0.00070743
0.00062539
-0.000283119
0.000244604
-0.000235543
0.000156906
-7.7917e-05
0.000117535
0.000152127
-0.000487654
0.000665318
0.00086323
0.000354595
-0.000155031
-2.35412e-05
0.000336145
1.92112e-05
0.000297745
-0.00023763
0.000361865
-0.00014731
0.000407649
0.00136641
-0.000351127
0.000327836
-0.000295219
3.01188e-05
0.000401305
-0.000282678
0.000202915
0.000634208
-0.000766657
7.83137e-05
0.000209026
-0.000208623
0.000203928
0.00032676
5.17806e-05
0.000167475
-6.21636e-05
0.000269292
0.000258534
0.000287127
0.000832483
0.00053393
-7.59559e-05
0.00013072
-6.37418e-05
0.000419008
-0.000143431
0.000187304
0.000208112
0.000344864
-0.000178932
0.000231289
0.00017636
-0.000245433
0.000197751
1.1051e-06
-0.000650176
-0.000100277
0.000156339
-0.00059623
-0.000654982
0.000568484
-0.000678678
0.000341614
-0.000246187
-1.86438e-05
0.000863657
0.000310421
-0.000121318
0.00114971
-0.000953649
-0.000196056
9.24283e-05
-4.12799e-05
0.000236288
-0.000118753
3.09779e-05
-0.000174409
0.000207666
0.000417724
0.000310689
0.000152816
0.00020905
0.000140419
-0.000238922
0.000724931
-0.000898644
0.000737812
-7.2493e-05
-0.000124608
-0.000130552
0.00025516
0.000370062
0.000727301
5.98278e-05
0.000237917
0.000478731
6.16593e-05
-0.000221203
0.000197662
0.00119519
-0.000331961
-0.000754861
-8.81917e-05
-0.00065394
0.000547547
-0.000171518
0.000190729
-0.000284806
0.000162295
0.000155391
-2.37758e-05
-8.71119e-05
-0.000107493
0.000165014
-5.75205e-05
0.000389453
-8.18915e-05
0.000844064
0.000474417
-4.93243e-05
-0.000425093
0.000487049
-1.72749e-05
2.59092e-05
-0.000252988
0.000189246
0.000329179
0.000397689
9.69263e-05
0.000303764
-0.000251983
8.29989e-05
0.000153289
-6.38049e-05
0.000257575
0.00029912
-0.000168401
0.000533561
1.57859e-05
0.000219261
-0.000428998
-0.000221178
-5.52371e-05
0.000170289
0.00174663
-0.000914145
-0.000479915
0.000558229
-0.000147917
4.0424e-05
-0.000140443
0.000307918
0.000667434
-0.000725336
-0.000189131
0.000190236
0.000369438
-6.46841e-05
5.76836e-05
6.95293e-05
0.000272084
0.000120188
0.000301566
-0.000209137
0.000334352
-0.000181536
0.000279435
-0.000223392
-0.00023127
0.00018999
-0.000139286
0.000170264
0.000528698
-0.000619202
0.00079298
0.000271861
-0.000212033
-4.51916e-05
-0.00063634
0.000521681
0.000557671
-0.000350005
0.000271953
3.18104e-05
-0.000182231
0.00033857
0.000217995
0.000171458
0.0001535
4.95827e-05
1.59793e-06
-3.36084e-05
-0.0002575
0.000175608
0.000359462
-0.000329343
-0.000253005
0.000165894
-0.000826453
0.000359422
-9.07108e-05
2.57279e-05
0.000156743
0.00104769
-0.00032039
0.00133275
-0.000854018
0.000131511
0.000297233
-0.000141842
-6.82539e-05
-0.000171976
0.000481699
0.00071573
5.3646e-05
0.000263826
-0.00020293
0.000185655
0.000301057
-9.24104e-05
0.000232829
-0.000669057
0.000596564
-0.000235966
0.000180729
-0.000157365
0.000173151
0.00166711
-0.000823042
0.000636958
-0.000699121
0.000434105
0.000128832
0.000321755
0.000293778
-0.000173589
8.46404e-05
-1.26949e-05
0.000242442
0.00049743
0.000125687
-0.000110772
0.000151196
-0.000110828
0.000714672
-0.000738448
0.00075296
0.000174444
0.000135627
0.000576516
-0.000652472
0.00029911
-8.58226e-05
-4.59756e-05
7.73133e-05
0.000257038
0.000145377
-8.76938e-05
0.000176778
0.000380893
1.28986e-05
0.000227597
-0.000147193
0.000290159
-0.00022063
-0.000205084
0.000254667
0.000380507
0.000195781
7.60797e-05
-0.000211618
0.00017801
-0.000171565
0.000173162
0.000331257
-0.000503233
0.000255526
-4.51395e-05
-4.17205e-05
0.00209698
-0.001304
-0.000253153
0.000162443
-0.000581532
-7.24073e-05
-0.000125912
0.000643097
-0.000220692
0.000252502
5.38908e-05
-0.000482888
-7.75456e-05
0.000278669
-0.00012517
6.92913e-05
-0.000129687
0.000155415
-0.000237206
0.000168952
0.000102988
0.000159781
2.33402e-06
0.000214401
0.000149733
0.000331966
-8.87935e-05
-2.59631e-05
3.46052e-05
0.000317093
0.000136828
2.82834e-05
0.000101691
-1.06644e-05
0.000246735
-5.28343e-05
1.58645e-06
0.00124297
-9.91066e-05
-5.64771e-05
0.000279098
-0.000150266
0.000610311
-0.000674116
0.000265011
-0.000180371
0.000273716
-0.00010351
5.48695e-05
0.00138823
-0.000672497
-0.000141733
-7.9288e-05
-0.000182842
0.000170147
-0.000126093
0.000257604
0.000214311
0.000105508
0.00015079
2.93011e-05
0.000169703
-0.000884003
0.000563614
8.20754e-05
-0.000186218
0.0026355
-0.0022014
-0.000327188
-0.000215222
0.000169247
2.15095e-05
0.000186821
0.00027675
0.000153124
0.000169262
0.000565185
5.99273e-05
-0.000826127
0.000737935
3.39757e-05
-0.000133642
4.59478e-05
0.000123565
3.33416e-05
-0.000287439
0.000277706
-0.000200393
-0.000608946
0.000483034
-0.000144579
0.000157477
-0.000339474
0.000236947
0.000663949
-0.000709141
-0.000107744
0.000209435
0.000165279
-8.32033e-05
-3.72126e-05
0.000454951
0.000126522
-0.000743343
-8.31093e-05
-9.67937e-06
0.000225175
2.73269e-05
0.000303509
4.99079e-05
0.000240251
-0.000112728
0.000142029
0.00048861
0.000154487
0.00191247
-0.00115951
0.00189706
0.000199346
-0.00019046
0.000164496
0.000308082
7.24254e-05
-4.26857e-05
0.000242002
-8.22213e-05
9.9082e-05
0.000118194
0.00023475
-0.000131762
-0.000163424
0.000289111
-0.00023406
0.000156514
-0.00070347
5.83378e-05
1.08362e-05
1.08362e-05
-6.51083e-05
0.000547422
0.000247682
-8.52391e-05
0.000608465
0.000136872
0.000266394
-0.000129566
-0.000156102
0.000157689
-0.000215763
0.000159286
0.000119728
-0.000212139
-0.00057553
0.000464702
-2.03131e-05
-0.000101977
0.000461439
0.000148575
-0.000104676
0.000139281
0.000116128
0.000121973
0.000138492
0.000261659
-0.000156151
0.000132391
-8.64429e-05
-3.5172e-05
-4.65166e-05
9.30171e-05
0.000175872
0.000227374
-5.76716e-05
-4.21612e-05
0.00281
-0.00156703
8.12884e-05
-8.72655e-05
-0.000194367
0.000157154
9.4181e-05
-0.00012129
0.0001428
1.37498e-06
-0.000165352
0.000155672
0.000713346
-0.00072401
0.000332847
2.65748e-05
-0.000120579
0.000608597
0.000522392
-0.000238011
0.000307302
0.000201461
-3.2199e-05
0.000235658
-0.000109136
-0.00108174
0.000409246
-0.000518129
-0.000198601
0.000225929
0.000225129
-0.000191153
-2.98703e-05
0.000329464
0.000236555
-0.000176628
0.000582427
-0.000182047
-0.00040038
0.00151428
-0.000949092
0.000145153
0.000260265
0.000383413
0.000266263
-0.000213477
0.000148368
2.77149e-05
-0.000734034
0.000446595
0.000103897
0.000656499
-0.000698219
-7.66252e-06
-0.000171811
0.000151498
0.00251116
-0.000614108
0.000169455
-0.000111117
0.000228507
-7.19931e-05
0.000272604
0.000169042
-1.59178e-05
0.000143268
0.000250002
-0.00011313
-5.41903e-05
0.000354768
-0.000133787
0.000144623
1.79906e-05
0.000143789
0.000120435
0.000313537
0.00026889
-0.000195158
0.000148641
0.000251155
-0.000135027
-0.000123066
3.66235e-05
-0.000269332
6.12924e-05
-0.000121952
-1.76171e-05
-0.000125536
0.000224618
4.20472e-06
0.00022457
-8.60785e-05
5.11005e-05
0.000766656
-0.000880092
0.000148379
-6.34966e-06
0.000304384
-0.000254476
0.0019248
-0.00131633
9.50045e-05
-0.000119881
-0.000613494
0.00016098
0.000452514
-1.61383e-05
2.65275e-05
-3.80035e-05
4.54025e-05
-9.03471e-05
0.000197059
2.887e-05
4.63883e-05
0.000136843
0.000238954
-0.000157665
0.00178715
9.69892e-05
-5.75654e-05
-3.94237e-05
0.000472682
-0.000507567
0.000604494
-0.000143456
0.000144831
0.000115434
9.01329e-06
0.000357767
-0.000175432
0.000145562
-8.45463e-05
0.000204274
0.000172387
0.000124884
-0.000577703
0.000452819
0.0002741
-0.000644299
0.000571891
0.000132461
9.14097e-05
-0.00068764
7.1522e-05
0.00058188
-0.000634715
6.23258e-05
0.000244469
-0.000346447
0.00190428
-0.00129568
-2.39346e-05
0.000207805
-0.000103909
-0.000193397
0.000139207
-0.00015099
0.000143327
0.000207203
-6.20499e-05
-0.000208818
0.000136825
-0.000156687
0.000250868
-6.045e-05
-0.000179128
0.000511094
0.000237115
-0.000116679
5.19745e-05
0.00113155
-0.000722302
1.16693e-06
-4.47559e-05
0.000121125
0.000119699
5.41618e-05
0.000685055
-0.000720227
0.000378355
-4.8891e-05
-2.59099e-05
-0.000708478
0.000619402
-0.000662088
-2.20411e-05
0.000220698
-7.74302e-05
0.000865093
-0.000418498
0.000485744
8.79245e-05
-8.63588e-05
0.000122982
0.000346964
0.000102087
-0.000156177
0.000140039
0.00129017
0.000182456
0.000189422
0.000112311
-0.000301734
0.000130351
-0.000101295
0.00012901
0.000196639
-0.000176296
0.000138293
-0.000625074
0.00053628
0.000702981
-0.000698777
0.000340859
-9.46696e-05
6.79321e-05
0.000233174
-0.00013817
-6.15871e-06
0.000635631
-0.000677792
0.00138093
-0.00102616
0.000306616
-9.69897e-05
0.000130331
-0.000114789
0.00013278
0.000198839
-8.34049e-05
-0.000136165
0.000165035
0.000184703
-4.09135e-05
-3.07343e-05
0.000156317
-1.58354e-05
0.000150246
-0.000103858
7.37072e-05
-0.000569559
0.000300227
0.000122653
-0.000166261
0.000211663
6.45961e-05
-1.28497e-05
0.000199765
-0.000173237
7.55089e-05
9.49304e-05
-0.000211214
0.000262314
0.00264487
-0.000857711
-0.000125536
0.000134549
-0.000189518
0.000129068
-0.000159082
0.000135148
-5.03112e-05
-1.31641e-05
-0.000165818
2.96522e-05
0.00157519
-0.00121743
0.00147534
-0.00147534
0.000560753
-0.000130331
0.000141167
0.000202095
-6.52696e-05
-0.000174788
0.000130032
0.000530964
-0.000114667
2.83078e-05
0.000124665
-1.90436e-05
-0.000126721
0.000198243
2.1687e-05
0.000550742
0.000215861
-0.000153536
0.000184548
-6.34235e-05
-1.7246e-05
3.96537e-05
0.000220983
-0.000101284
3.55793e-05
-0.000133594
0.000134761
0.000161464
-2.46212e-05
0.00068375
-0.000701367
3.39472e-05
-0.000228699
0.000104304
0.000605557
-2.36763e-05
0.00014514
-9.09781e-05
0.000222159
-0.000120071
0.00012055
-3.64948e-05
0.000101143
-9.82934e-05
0.000279513
1.42211e-05
-6.87302e-05
0.000139708
-7.09779e-05
-0.00013961
0.000133452
-3.87419e-05
0.00194609
-0.000151933
0.000880092
-0.00155503
-8.17875e-05
-0.000573491
0.000486225
7.24367e-06
3.83143e-05
-1.53127e-05
0.000101028
-0.000185574
-0.000159647
0.000128913
8.39889e-05
0.000686845
4.96005e-05
3.84261e-05
-0.000143498
0.000130648
0.00245023
-0.00116007
0.000119429
-5.81371e-05
0.000418338
-0.000173868
0.000893083
-0.000546119
0.000170781
0.000945593
-0.000763137
-0.000154706
0.000222639
4.12822e-05
-0.000276949
0.000254908
0.000175587
-8.06571e-05
-2.64566e-05
9.55935e-07
0.000144211
-1.17499e-05
-0.000171312
0.000121001
-2.44997e-05
-0.000647946
0.000229448
0.000167365
-4.47124e-05
-0.000183722
0.000118453
-0.00034772
-5.46544e-05
-5.31826e-05
-8.05667e-05
-0.000194693
0.000194693
0.00011959
0.000213413
-0.000137905
0.000103942
-4.12797e-05
-4.84959e-06
0.000705952
-0.000719116
5.9578e-06
-1.46345e-05
-0.000145466
0.000126423
-4.49131e-05
0.000547255
-0.000502342
0.00103766
-0.000973068
7.72942e-05
0.00159252
0.000194384
-6.97191e-05
-1.00466e-05
4.35368e-05
-0.000158138
0.000121643
0.000115859
-8.75512e-05
0.000208236
-0.000103932
0.000287313
-0.000136033
0.000165685
-9.98103e-05
0.000121497
0.000112596
5.98778e-05
0.000669191
-0.000686437
0.000208156
-0.000402849
-0.000179761
-5.31601e-05
-0.000141167
0.000134817
0.00010299
-1.4818e-05
8.81653e-05
0.000164027
-6.2884e-05
-0.000193837
0.00023349
0.000133702
-9.81228e-05
-2.92254e-05
-0.0001109
0.000125122
0.000191014
-0.000157067
4.87302e-05
8.33703e-05
-0.000143184
0.000181498
0.000188246
0.000322848
0.00161794
-0.00133842
-0.000119683
0.000126927
-0.000433367
-0.000103238
0.000149064
-2.8514e-05
0.000205688
-0.000121699
0.000189639
-0.000145462
0.000120962
-0.000166139
0.000111484
0.000104352
0.00247979
-0.000533698
-0.000126208
0.000127164
4.58453e-06
-4.51382e-05
-9.1539e-05
-3.72106e-05
0.000176891
-7.5863e-05
0.000176801
-5.83482e-05
0.000193743
-0.000155317
0.000330559
2.88019e-05
0.000107082
0.000127878
-8.65962e-05
-0.000130809
0.00012596
-0.000154827
0.000113547
0.000196695
-0.000147095
-1.90396e-05
0.000575897
-0.000123078
-0.000543587
0.000448917
1.60486e-05
-0.000192833
6.7783e-05
0.000457873
-0.000133469
0.000123423
1.05968e-05
-4.99249e-05
-0.000108024
2.04724e-05
0.000158471
3.25431e-05
2.24384e-05
-7.46393e-05
-3.31833e-05
0.000149826
-4.58847e-05
2.56785e-05
2.2501e-05
5.43865e-06
-0.000240031
0.000225396
0.000465668
0.000723586
-0.000552805
0.000364627
0.00021127
-0.000134418
0.0001196
8.69425e-05
-0.000158142
0.000201678
0.000192809
-8.98191e-05
-3.95509e-05
0.000562812
-0.000643378
8.88772e-05
-7.29778e-05
7.18694e-07
-0.000143688
0.000114462
0.000659315
-0.000429867
-0.000325144
0.000151275
0.000113196
0.000996539
0.00179335
0.00182058
-0.000228061
0.000194328
-0.000106163
-3.64509e-06
0.000195031
-0.000135153
-0.000676031
0.000419455
0.000127967
2.97555e-05
-0.000410257
3.66755e-05
0.000133689
-1.40997e-05
0.000105175
-7.50978e-06
0.000802721
0.000467596
-2.27254e-05
0.000121869
-7.31391e-05
-6.54015e-06
-0.000277655
4.13786e-05
2.33564e-05
-0.000150001
0.000104863
0.000867258
-0.00104702
-0.000159793
0.000101444
-4.83081e-05
7.26298e-05
-1.09953e-05
-0.000456986
0.000109266
0.000144659
-6.12892e-05
-0.000133691
0.000114652
0.000786579
1.56429e-05
-3.64546e-05
-0.000267348
4.79364e-05
0.000116411
-0.000100363
0.000168867
-6.17848e-05
3.5273e-05
-0.000109317
0.000119914
-5.73613e-05
7.00202e-05
0.00128689
-0.000287371
0.000195832
-0.000140325
0.000107141
-0.000471167
0.000134448
-3.00958e-05
-0.000183081
0.000211883
8.8563e-05
-1.40915e-05
-0.000116281
0.00012172
9.5889e-05
0.000189214
-0.000121431
-0.000134817
0.000123067
-0.000152599
0.0001751
-0.000121256
0.000121975
-2.58624e-05
0.000636995
-0.000660672
0.000180728
-9.18513e-05
-0.000124476
0.000120831
-9.25201e-05
-2.94317e-05
-5.8339e-05
0.000113653
-5.53135e-05
0.000111042
-9.05694e-05
0.000642636
-0.000184763
8.7072e-05
1.85972e-05
-0.000160131
8.42679e-05
-0.00012592
0.00011841
0.000164421
-0.000141983
0.000660672
-0.000675984
-0.000636995
0.000598253
-0.000131443
0.000108717
7.45654e-05
-6.19743e-05
5.40608e-05
0.000132594
-4.56513e-05
7.0943e-06
-0.000125818
0.000114822
-9.43982e-05
0.000120077
-0.000702441
0.000675984
-0.000144028
9.57203e-05
0.000135483
-6.92265e-05
-6.62561e-05
0.000113657
-8.39015e-05
0.000152556
-5.11117e-05
0.000183637
-0.000151094
-3.9165e-05
7.13045e-05
0.00018412
-0.000147444
9.69896e-05
-0.000129317
-1.67909e-05
0.000539287
-0.000426091
3.63279e-06
-0.000135634
9.91794e-05
9.07712e-05
4.05134e-05
-0.000162323
0.000185679
-1.35185e-05
0.000403787
-0.000443338
-1.09664e-05
0.000179935
-0.000107305
4.63586e-07
-0.000696483
0.000414574
1.18222e-05
0.000182621
-0.000141242
-0.000213943
0.000207403
-2.50146e-06
1.06792e-05
-2.84925e-05
-0.000239591
9.32477e-05
-0.000503505
-0.000120256
9.01606e-05
-5.08837e-06
1.27769e-05
-1.50809e-05
0.00010719
-7.19165e-05
-0.00012426
0.000110168
0.000696483
-0.000691899
-0.000127837
0.000101974
-7.40795e-06
-0.000598254
0.000545071
-7.29366e-05
4.90357e-05
2.39008e-05
5.85042e-05
-0.000953771
-2.06038e-06
-0.000156148
1.41654e-05
-0.000129312
-0.000446158
1.62908e-05
-5.92967e-05
0.00017971
-0.000131773
0.000220345
0.00024725
0.00016595
-7.8878e-05
-6.42418e-05
0.000691899
-0.000741824
-1.9119e-05
7.29368e-05
-0.00018682
0.000113884
0.000118926
-3.03634e-05
7.40989e-05
-0.000208533
-0.000262634
-9.43752e-06
-0.000336891
-0.000103555
1.2986e-05
1.9259e-05
7.32751e-05
2.74886e-05
0.000168123
-9.35576e-05
-0.000507236
0.000384157
-0.000457157
3.30259e-05
3.51768e-05
2.32881e-05
-0.000174892
0.000193489
1.65215e-05
0.000150806
-6.65383e-05
-0.000111567
0.000118661
-0.000123067
0.000108967
-0.000121386
0.000104595
-0.000137213
8.61014e-05
-0.000129873
9.07081e-05
0.000741823
0.00105153
-0.0001168
0.000120433
-4.14926e-05
-5.83188e-05
0.00050786
-0.000545071
-0.000156352
0.000168174
0.000608834
-0.000517425
-3.06935e-05
-0.000120202
0.000120666
9.88318e-05
-5.83184e-05
3.84675e-05
-0.000245865
0.000183891
6.08175e-05
0.000115216
-0.000104537
0.000174237
-0.000120176
-0.000121977
0.000119475
-0.000123083
9.45908e-05
0.000301564
-0.000346477
-0.000393296
0.000161941
-0.000147776
-0.000122115
0.000117027
0.000346094
-0.000194818
0.000116254
-4.49497e-05
1.07876e-05
0.000327435
0.0006077
-0.000161185
0.000173962
-1.12175e-05
0.000314747
-0.000328266
0.000880092
0.000144407
-5.36361e-05
-2.11089e-05
-0.000120837
0.000113429
0.000543194
-3.84623e-05
5.69574e-05
2.69152e-05
-0.00105153
0.00233841
-0.000128591
-0.000117345
9.82263e-05
8.01655e-05
-0.000368237
-5.78532e-05
5.58913e-06
-0.00015568
7.90382e-06
6.98889e-06
0.000110003
-9.70169e-05
4.24636e-05
3.64899e-06
7.87457e-05
0.000177431
-0.000149942
0.000166046
-0.000107542
-0.000105507
7.51434e-05
-1.53463e-05
-0.000193757
0.000191697
-0.00011826
0.000108822
0.000154699
-8.05998e-05
1.86133e-06
0.000604494
7.19282e-05
2.30657e-07
2.17508e-05
-1.31088e-06
0.000172961
-0.000137785
0.000450499
1.72385e-05
-0.00025683
0.000506149
-0.000141522
0.00131895
-0.000710117
6.11409e-05
0.000177294
-0.000144268
-2.64007e-06
0.000324101
-1.27505e-05
8.78508e-05
-4.57379e-05
-4.21129e-05
-8.596e-05
0.000105219
-3.81015e-06
5.46636e-06
-0.000351947
-0.00012327
8.17772e-05
-0.000486266
0.000103585
-3.03102e-05
9.77634e-05
-7.44753e-05
-0.000822127
-0.000131644
-0.000117347
8.66532e-05
-2.68112e-07
-3.25615e-05
-9.54944e-05
0.000112016
5.86354e-05
-8.60422e-05
0.000198353
0.000167817
-0.00012935
0.000161706
-0.000153802
-0.000108968
9.38867e-05
2.73515e-05
-0.00233841
0.00275299
0.000129689
-4.3588e-05
-0.000167067
0.000177855
0.000155491
-9.46737e-05
-2.27557e-05
0.000174801
-0.00015305
-4.83117e-06
2.86936e-05
0.00070723
-0.000405666
4.58701e-05
2.95323e-05
-0.00015852
0.000164109
6.89525e-06
-0.000135681
6.91429e-05
-0.000114534
0.000103317
7.60535e-05
-0.00011232
9.12114e-05
0.000189806
-0.000270613
0.000141301
0.000173153
-0.000145802
-0.00108476
3.00327e-05
-0.000103341
6.32382e-06
-0.000159333
0.000166322
0.000780346
-9.35775e-05
-1.40939e-05
-0.000225598
-0.000102667
-0.000643266
8.81605e-05
-6.12453e-05
0.000158917
1.58837e-05
4.79485e-05
-0.00010865
3.94236e-05
3.18546e-06
0.000166536
-0.000137842
2.01031e-05
-5.71221e-06
0.000140535
-6.86066e-05
5.11531e-06
-0.000283452
1.18035e-05
0.000161516
-0.000119053
-8.67224e-05
9.72475e-06
5.99349e-05
-5.55158e-05
-0.000101052
3.82597e-05
-0.00016685
-4.40942e-05
-0.000214133
0.000175671
-0.000696483
-0.000140385
8.67535e-06
-0.000162931
0.000178814
0.000143238
-8.20969e-05
2.07336e-05
0.000732461
3.21661e-05
-0.000109795
9.70449e-05
4.77585e-06
-0.000328472
-8.41935e-06
0.000173138
-0.000153035
-0.000160779
0.000167674
0.00235969
-0.00275299
-7.29364e-05
-9.055e-05
6.02397e-05
0.000236595
-0.000583072
1.02075e-05
-1.54065e-05
-0.000110797
7.82354e-05
-0.000176616
0.000176348
0.000116025
-3.4248e-05
0.000159105
-0.000129072
1.23859e-06
4.8564e-05
0.000126386
-5.72434e-05
-0.000545071
-2.24366e-05
5.54321e-06
0.000571356
-0.000334761
7.24375e-05
1.36852e-05
-2.41435e-05
-0.000114302
0.000119768
7.65036e-05
-4.69713e-05
-0.000119768
0.000123417
0.000153394
-0.000107524
-9.38869e-05
7.85406e-05
-0.000269535
-0.000461694
0.000320172
-0.000123417
0.000125278
-0.000278941
8.41226e-05
0.000710117
-0.000520311
2.12628e-05
-0.000106413
8.3657e-05
-0.000450499
0.00039218
-0.000125278
0.000125509
0.000163002
-0.000142269
-0.000125509
0.000124198
-0.00021857
5.81375e-05
-3.56257e-05
-2.25118e-05
-0.000124198
0.000121558
-6.4786e-06
-7.73437e-05
-1.51764e-05
9.96711e-06
0.0001657
1.31147e-05
-0.000121558
0.000117748
-0.000121421
6.59049e-05
8.8848e-05
-3.02126e-05
3.43413e-05
-4.53672e-05
-0.000163689
0.000168804
-1.52013e-05
-0.000165637
0.000170413
0.000143382
-9.54335e-05
9.72734e-05
0.000116753
-0.000214027
0.000130063
-7.01286e-05
0.000114302
-0.000107978
0.000169981
-0.000166795
-7.75363e-05
0.000151225
-0.000119059
5.1344e-05
-0.000154011
5.77796e-05
4.47538e-05
1.51834e-06
0.00016569
-0.000117747
0.000112916
-0.000249727
-8.54215e-05
-0.000266525
4.79664e-05
-0.000104196
9.01023e-05
2.21525e-05
1.52581e-05
0.000153241
-0.000131979
3.58576e-05
-0.000115507
-0.000164414
0.000165653
6.38318e-05
-3.26902e-05
-3.11416e-05
0.000168921
-0.000158713
-0.000519041
3.27741e-05
1.09726e-05
-0.000164841
0.000170384
3.25963e-06
0.00013185
-8.32864e-05
0.000107978
-9.93022e-05
-0.00011268
5.54362e-05
-0.000103649
6.94015e-05
9.93025e-05
-8.95777e-05
0.000142335
-0.000107994
-0.00013764
0.00127493
2.01155e-06
-0.000161391
-0.000122061
0.000188514
-1.21663e-05
-0.000112916
0.000107204
4.34385e-06
-0.000108207
6.28402e-05
-2.54139e-05
8.95776e-05
-7.77742e-05
0.000116663
-5.88833e-05
-7.15112e-06
2.00836e-06
3.64166e-05
-4.67746e-05
-0.000650684
-3.57701e-05
-0.000229985
0.000143262
4.65343e-05
5.57218e-06
0.000238585
-0.00050812
0.000166077
0.000464925
-0.00022634
-5.43138e-05
1.68603e-05
2.32762e-05
0.000182035
0.000158713
-0.000148746
-9.97517e-05
7.56082e-05
0.000520311
-0.000354621
0.000103632
-4.81962e-05
0.000143453
-0.0001213
0.000130163
-7.85411e-05
6.31346e-05
0.000401755
-0.000495332
0.000119413
-7.14465e-05
-0.000246813
-0.000274944
-0.000184019
-4.01952e-05
-0.000113816
-0.000162256
7.77745e-05
-6.40893e-05
0.000132165
-9.63069e-05
7.57847e-05
-1.55451e-05
0.000106669
-6.01348e-05
-9.97918e-05
5.30172e-05
1.14741e-05
4.47492e-05
-1.60947e-05
4.55721e-05
5.58783e-05
-0.000274448
-0.000107204
0.000100725
3.61264e-05
-3.69516e-05
2.46125e-05
-0.000140119
-9.60286e-05
6.02585e-05
-0.000417404
0.000233385
-0.000165578
0.000168838
-0.00039218
0.000314644
0.000120821
-8.44048e-05
3.52225e-05
-0.00016945
0.000157283
2.41707e-05
0.000148746
-0.000137773
9.41199e-05
-4.93707e-05
-8.75244e-05
-2.62916e-05
6.40893e-05
-4.88311e-05
-2.66268e-05
-8.29096e-05
3.39849e-05
-3.79695e-06
-9.78548e-05
8.26535e-05
-9.10963e-05
4.29001e-05
4.80612e-06
0.000510655
-0.000263405
5.81373e-05
-9.25183e-05
6.71044e-05
0.000133251
-0.000109975
0.000108758
-7.26319e-05
0.000190399
-0.000186056