/*--------------------------------*- C++ -*----------------------------------*\
  =========                 |
  \\      /  F ield         | OpenFOAM: The Open Source CFD Toolbox
   \\    /   O peration     | Website:  https://openfoam.org
    \\  /    A nd           | Version:  8
     \\/     M anipulation  |
\*---------------------------------------------------------------------------*/
FoamFile
{
    version     2.0;
    format      ascii;
    class       volVectorField;
    location    "0.05";
    object      U;
}
// * * * * * * * * * * * * * * * * * * * * * * * * * * * * * * * * * * * * * //

dimensions      [0 1 -1 0 0 0 0];

internalField   nonuniform List<vector> 
1924
(
(0.101277 0.0782115 1.10562e-19)
(0.213399 0.130139 1.54479e-19)
(0.138001 0.284896 -1.64308e-19)
(0.161412 0.323109 -1.38987e-19)
(0.13503 0.178975 2.92828e-20)
(0.113125 0.339103 2.20875e-19)
(0.10846 0.35669 2.93529e-20)
(0.0337917 0.370886 -6.61079e-20)
(0.0250184 0.364968 -6.42748e-20)
(0.152632 0.24349 -8.93515e-20)
(-0.0214962 0.376754 -1.27912e-19)
(-0.031516 0.39059 -5.35478e-19)
(0.166016 0.171503 1.784e-20)
(-0.0865481 0.382873 4.04927e-19)
(-0.226959 0.114461 1.08341e-19)
(-0.213575 0.103556 2.37748e-20)
(0.143116 0.167329 4.66772e-20)
(-0.111576 0.408775 3.55861e-19)
(0.10123 0.0501989 2.81562e-19)
(-0.190283 0.384253 -1.95048e-19)
(0.2265 0.301142 4.76667e-19)
(0.0115677 0.120564 -1.49612e-19)
(0.112804 0.102811 -2.41451e-19)
(-0.235869 0.400022 8.5816e-20)
(0.00833583 0.117957 -1.15326e-19)
(-0.0296855 0.115016 -6.104e-21)
(-0.0338047 0.119335 -5.59065e-20)
(-0.0328213 0.326551 -2.38515e-20)
(0.0668194 0.174575 -4.51997e-20)
(0.0861067 -0.309839 2.00845e-20)
(0.112263 0.121636 -1.47601e-19)
(-0.0024964 0.117717 1.2317e-19)
(0.0614004 0.109257 6.33257e-20)
(0.141966 0.135149 -2.13886e-20)
(0.0375377 0.23328 -1.09104e-18)
(0.0992755 0.0933456 -2.93782e-19)
(-0.00653613 0.12282 2.03695e-19)
(0.0520448 0.176602 -8.17248e-20)
(0.0721954 -0.301789 -1.51573e-19)
(0.121105 0.136002 -7.05294e-20)
(-0.0180734 0.121572 -6.70284e-20)
(0.224563 0.226395 1.21477e-19)
(-0.0192442 0.117216 -3.90024e-20)
(0.134042 0.0953878 1.11778e-19)
(0.322923 -0.332513 -6.9801e-19)
(0.0471958 0.16865 -1.80885e-20)
(0.13856 -0.036949 4.35243e-18)
(0.2153 -0.37176 3.60143e-20)
(0.346757 0.690461 1.68061e-18)
(0.210292 0.518808 4.66681e-19)
(0.130206 0.00468635 -2.14463e-19)
(0.16972 0.211098 -1.91228e-20)
(0.0215383 0.120509 7.89257e-20)
(0.132686 -0.018823 -2.63488e-19)
(0.0184764 0.16722 -6.02075e-20)
(0.16151 0.254533 1.73539e-19)
(0.12583 0.023034 1.1634e-18)
(0.288134 -0.309427 5.13303e-19)
(0.371487 -0.314425 1.08075e-18)
(-0.0676948 0.0984797 -1.73939e-20)
(0.129828 0.0746877 -4.26333e-20)
(-0.204836 0.10904 -6.03613e-20)
(0.151044 0.0659072 4.14351e-21)
(0.0742592 -0.28375 -3.71206e-20)
(0.0979983 -0.0179433 -9.31318e-20)
(0.187883 -0.341875 -1.81618e-20)
(-0.128371 0.104495 1.05792e-19)
(0.082694 0.101714 7.94328e-20)
(0.0451695 0.170115 -2.25957e-20)
(0.160947 0.0248942 -2.00585e-19)
(0.0728058 0.309427 3.48382e-19)
(-0.196149 0.101794 -1.81031e-19)
(0.0677864 -0.289469 -2.11222e-19)
(0.0951899 -0.326073 -1.8163e-20)
(0.0757219 -0.336125 -3.16398e-20)
(0.0136517 0.247012 6.17089e-20)
(0.142905 -0.390969 -3.12831e-20)
(0.0820685 -0.350256 -7.67126e-20)
(0.179721 -0.395333 4.47808e-20)
(0.137868 0.0432903 2.15481e-20)
(0.0350116 -0.42383 1.18974e-18)
(-0.0467167 0.116424 -8.34922e-20)
(0.174494 -0.261861 5.01952e-19)
(0.169551 0.311117 -6.14585e-20)
(0.0720138 0.0766974 3.09521e-20)
(0.0743723 0.0987661 3.83038e-20)
(0.0234148 0.168651 2.08578e-19)
(-0.228981 0.12882 1.12981e-19)
(0.21083 0.609521 5.14255e-19)
(0.100489 0.325257 3.35779e-19)
(-0.124313 0.118158 4.33952e-19)
(-0.045379 0.10992 9.43602e-20)
(0.0257166 0.171737 -4.31825e-20)
(0.0116945 0.210607 1.82398e-20)
(0.112698 0.274815 1.38823e-19)
(0.0808741 -0.0260873 -1.07833e-20)
(0.130247 -0.358772 -1.69515e-20)
(0.0421232 -0.445861 1.56242e-18)
(-0.0642496 0.103771 1.29119e-19)
(0.0406885 0.270411 -2.65024e-19)
(0.0665509 0.223762 -1.10644e-19)
(0.140383 0.27109 7.22636e-20)
(-0.0705668 0.118881 1.28646e-20)
(-0.0544247 0.107029 2.96965e-20)
(0.0136493 0.214101 5.89999e-21)
(0.0664434 -0.390086 8.60957e-19)
(0.0345371 0.207467 -6.3452e-20)
(0.0186556 0.212534 7.08816e-20)
(-0.0635648 0.0916017 -5.9007e-20)
(0.016085 0.188931 -1.74583e-20)
(0.142285 -0.42435 -9.76768e-20)
(0.035522 0.18618 -1.65732e-20)
(0.072141 0.200161 -1.24208e-19)
(0.128946 -0.284502 1.34611e-19)
(0.154195 -0.411829 8.74357e-21)
(0.140836 0.382411 -1.9011e-19)
(0.0835292 0.251226 -2.58659e-19)
(-0.206863 0.0878239 3.75093e-20)
(0.039351 0.0882282 5.45817e-21)
(0.124892 -0.429637 -2.9234e-20)
(0.0474792 0.0730819 4.50893e-20)
(0.949198 0.235821 1.25397e-18)
(0.275413 0.366118 2.89507e-19)
(0.106601 0.36931 -4.30871e-19)
(-0.147737 0.0769266 -6.4684e-20)
(0.0132626 0.208327 -1.84839e-19)
(0.022471 0.23701 1.18758e-19)
(0.0686019 -0.358899 -1.98425e-19)
(0.0233284 0.192719 -2.72238e-20)
(0.778906 -0.262532 -1.97833e-19)
(0.107684 -0.429154 1.2995e-20)
(0.0425133 0.217419 -4.5653e-20)
(-0.0432478 0.268885 -3.59186e-20)
(0.159316 -0.283931 2.64171e-19)
(0.137863 0.224685 1.75249e-19)
(0.0141609 0.209632 -9.82907e-20)
(0.057315 0.185061 -5.64944e-20)
(0.0415126 0.191425 -2.78323e-20)
(-0.281712 0.338756 -1.69408e-19)
(0.0553089 0.189801 -3.17549e-19)
(0.225506 -0.0900399 -2.92465e-20)
(-0.179459 0.116638 -2.76996e-21)
(0.56776 -0.536475 5.70473e-18)
(0.0133785 0.141944 -5.40175e-21)
(0.0557585 0.264503 5.19722e-19)
(0.644296 -0.311104 -2.19159e-18)
(0.018406 0.211306 2.27511e-19)
(0.0648864 0.28038 -1.83535e-20)
(-0.0651741 0.0864415 -4.26278e-20)
(0.0363295 0.0806691 -3.27249e-20)
(0.106932 -0.248407 3.27175e-19)
(0.893342 0.126372 2.01981e-18)
(0.0464406 0.239875 1.81393e-19)
(0.0285346 0.228918 9.12122e-20)
(0.0616402 0.299408 9.73089e-19)
(0.0096501 0.209913 -2.44612e-19)
(0.90268 0.257492 -2.475e-18)
(0.0740008 0.196258 -9.98635e-20)
(0.0798815 -0.467277 8.48654e-20)
(0.293273 -0.158908 -4.28837e-19)
(0.119273 -0.299493 1.60106e-19)
(-0.013677 0.230416 2.15307e-20)
(0.0322077 0.24405 1.04541e-19)
(1.21646 0.0984217 4.79611e-18)
(0.0705174 -0.269886 -1.94913e-21)
(0.012602 0.21371 -2.36967e-19)
(0.00253841 0.2114 2.35319e-19)
(0.844747 0.195197 -6.19077e-19)
(0.117983 -0.433136 -1.04013e-20)
(0.0176759 0.202205 -8.27327e-20)
(0.0830556 0.128077 8.09931e-20)
(0.0218632 0.293737 -2.45538e-19)
(0.0532998 -0.392406 5.17302e-19)
(-0.0558933 0.101625 4.29426e-20)
(0.260377 0.241256 2.39959e-19)
(0.033609 0.196958 2.54268e-19)
(0.0993738 -0.297129 4.00947e-19)
(0.0449057 0.332498 2.73962e-20)
(0.0924117 0.0783181 -1.38098e-19)
(0.00926456 0.244816 4.67566e-19)
(-0.00147825 0.190746 5.49117e-20)
(-0.217774 0.0636012 9.85506e-20)
(0.110395 -0.35667 2.80266e-20)
(-0.00327727 0.213818 2.82794e-20)
(0.385094 0.864992 1.47345e-18)
(0.398786 -0.0462293 1.43877e-18)
(0.0474914 0.227833 2.50268e-19)
(-0.0194384 0.18869 1.05899e-19)
(0.100921 -0.448885 8.52424e-21)
(0.132438 -0.322526 2.18617e-20)
(0.0271266 0.208185 6.50339e-20)
(0.0136835 0.319779 -3.93818e-19)
(0.0746721 -0.440987 2.0696e-19)
(0.00344854 0.259217 4.17799e-19)
(-0.0134706 0.218484 -9.5216e-20)
(1.06027 -0.181633 6.39403e-18)
(-0.0377522 0.185468 -7.83206e-20)
(0.0287022 0.192029 4.93619e-19)
(0.0157504 0.193055 -2.66966e-19)
(0.0375712 0.179186 1.0838e-19)
(0.0387085 0.112846 -5.64497e-20)
(0.247148 0.22536 7.07763e-19)
(0.00838351 0.213724 6.94123e-20)
(-0.0228707 0.299696 2.04727e-19)
(0.106887 0.157332 4.68053e-20)
(-0.00492701 0.185281 4.50438e-20)
(-0.0240439 0.250136 -3.65317e-20)
(0.0672231 0.218983 1.04452e-19)
(0.0725337 0.256555 -2.34336e-19)
(0.00814702 0.258617 -1.57668e-19)
(1.31599 -0.380753 7.26721e-18)
(0.0239359 0.208208 -1.51562e-19)
(-0.326356 0.260846 4.00635e-20)
(-0.0207439 0.219662 -1.53655e-19)
(-0.0221117 0.181359 2.9005e-20)
(0.0752996 -0.376736 -2.50736e-19)
(-0.0610106 0.0818882 -4.1918e-20)
(0.0239148 0.205089 8.58152e-20)
(-0.0351831 0.262301 5.55169e-20)
(0.0561376 -0.363363 -4.34386e-20)
(0.0138955 0.203384 -1.26553e-20)
(0.222677 -0.255379 4.92071e-19)
(0.00443548 0.21689 3.03362e-19)
(-0.29766 0.218309 -9.24971e-20)
(-0.0352186 0.330072 3.69819e-19)
(-0.0387489 0.175453 -2.98146e-20)
(0.0547637 -0.456332 9.01253e-19)
(0.03888 -0.408498 2.798e-19)
(-0.0351904 0.225804 1.73796e-19)
(0.0324417 0.172657 3.05449e-20)
(0.0761739 0.118835 -8.52652e-20)
(-0.101934 0.119481 -7.7891e-20)
(0.0116946 0.18848 -3.46194e-19)
(0.02926 0.295439 -3.32092e-19)
(-0.0549542 0.179272 -1.6445e-20)
(0.0136111 -0.0403146 2.2297e-19)
(-0.385644 0.208805 2.39729e-19)
(-0.065704 0.24657 1.64547e-20)
(-0.00206387 0.220108 2.00965e-20)
(1.20955 -0.176244 6.12893e-18)
(-0.201087 0.0403327 2.87277e-19)
(0.00177589 0.171561 1.15014e-21)
(-0.445102 0.255785 -1.78202e-20)
(0.0639886 0.207989 1.06068e-19)
(0.548296 -0.210249 -4.6416e-19)
(0.0930388 0.250405 -4.53066e-20)
(-0.0776901 0.301865 -3.29683e-19)
(0.247055 0.0987131 -7.15179e-20)
(0.0938312 -0.363484 1.01613e-19)
(0.0389771 -0.399219 -2.36455e-19)
(0.488392 -0.334547 -1.00485e-18)
(1.16359 -0.185134 5.03718e-18)
(-0.0423398 0.224484 1.66269e-19)
(0.0145318 0.21345 1.88915e-19)
(0.089682 -0.451734 2.40483e-20)
(-0.307225 0.178082 -2.89082e-19)
(-0.0287229 0.110994 -6.77861e-21)
(0.00605263 0.152383 8.94081e-20)
(0.00951815 0.201923 8.11292e-20)
(-0.0823941 0.254864 2.31606e-20)
(-0.00101762 0.203209 -1.19432e-19)
(-0.0115514 0.223066 -2.14686e-19)
(-0.0534012 0.0981181 5.31817e-20)
(0.0884198 -0.378687 -2.41925e-19)
(-0.00400465 0.115355 4.32722e-20)
(0.0602913 -0.336809 1.47312e-20)
(0.250302 0.189036 1.37204e-21)
(0.0482656 -0.382781 7.10151e-20)
(0.0073874 0.209158 -2.6114e-20)
(-0.226291 -0.140944 2.54626e-17)
(0.0402158 0.158778 -6.2387e-22)
(0.0909853 -0.263381 6.4386e-20)
(0.0670011 0.150639 1.48959e-20)
(-0.0100219 0.147892 3.26781e-21)
(-0.0868439 0.104888 -8.90359e-20)
(0.111847 -0.376221 2.66192e-18)
(-0.0911836 0.325553 -4.9042e-19)
(-0.0534668 0.166511 -1.06032e-19)
(0.0159618 0.221759 3.34987e-19)
(0.018745 0.175717 -7.75923e-20)
(0.0359374 0.0949633 -8.65813e-21)
(0.837797 -0.173587 3.33721e-18)
(-0.107626 0.122636 1.67801e-19)
(-0.0606351 0.229933 -1.51156e-19)
(0.0583019 0.049235 4.00421e-20)
(0.11232 -0.335493 -3.2773e-20)
(0.0431785 -0.443164 1.82444e-19)
(1.01744 -0.183007 1.8855e-18)
(-0.117338 0.228119 6.62426e-20)
(-0.00138921 0.164495 2.4691e-20)
(-0.0227314 0.227064 5.52309e-20)
(0.0586036 -0.31022 -6.37556e-20)
(-0.0687588 0.169157 -8.97023e-20)
(-0.382485 0.140463 2.49981e-20)
(0.139415 0.469751 5.71677e-19)
(0.0765998 -0.28034 5.668e-20)
(-0.277331 0.146946 -2.36422e-19)
(0.0781593 0.191453 3.18956e-19)
(0.0451048 -0.372079 -1.66995e-21)
(-0.342091 0.124125 -1.8157e-19)
(0.732198 -0.197438 -9.48646e-19)
(0.00477588 0.225877 7.95384e-20)
(-0.482035 0.0956154 8.98997e-20)
(-0.0603359 0.0770201 1.27624e-19)
(-0.139028 0.286837 5.77016e-20)
(-0.0244668 0.141828 -1.24944e-19)
(0.225113 0.142403 4.62942e-20)
(-0.556254 0.0169068 -1.14718e-20)
(0.00317339 0.14605 4.47187e-20)
(0.260525 -0.313608 9.08773e-20)
(0.0907218 0.225802 -5.22766e-20)
(0.040088 0.0733475 -2.97002e-20)
(-0.0660379 0.224352 1.94157e-19)
(0.0194874 0.112648 1.61228e-19)
(0.0660328 -0.462944 8.22349e-20)
(0.197607 0.139676 1.23466e-19)
(-0.00634112 0.201502 -1.69258e-19)
(-0.137852 0.233234 7.06936e-20)
(-0.035045 0.228702 2.07582e-19)
(-0.0185862 0.205265 2.10698e-19)
(0.0536405 -0.323543 -1.62418e-19)
(0.03506 0.152795 -3.99358e-20)
(-0.00266614 0.233991 1.29818e-19)
(0.0855686 -0.275838 9.33528e-20)
(-0.0372126 0.129934 -5.0709e-20)
(0.0260413 -0.416996 1.39361e-18)
(-0.0152539 0.166889 2.1098e-20)
(-0.0109654 0.140464 1.63661e-19)
(0.206579 0.253326 -3.26829e-20)
(0.0586917 -0.439157 -1.6202e-19)
(0.0151031 0.168825 -4.33058e-20)
(-0.112176 0.0887421 2.26027e-20)
(0.0210922 0.107634 1.12917e-19)
(-0.174192 0.312129 -2.43971e-20)
(0.0496883 -0.355988 -5.25883e-20)
(-0.0641498 0.154024 -1.23134e-19)
(-0.0788506 0.0930336 4.35802e-20)
(-0.0505484 0.2302 -9.40243e-20)
(-0.0861731 0.228855 -1.65586e-19)
(-0.0176361 0.234753 2.50261e-20)
(0.0250973 -0.408718 6.96142e-19)
(0.102119 -0.272319 -1.57112e-20)
(0.00796407 0.114501 -4.32747e-20)
(0.07066 0.182616 2.99977e-19)
(-0.274912 0.112353 -7.84448e-20)
(-0.194065 0.0913737 -3.09899e-19)
(0.0737063 0.183749 -3.60216e-20)
(-0.149046 0.0578464 -6.40496e-20)
(0.036771 0.067401 -1.40338e-19)
(-0.022393 0.130841 -6.37591e-20)
(-0.0183964 0.113185 -6.75423e-20)
(0.681869 -0.281188 -1.06166e-18)
(0.0583957 -0.254695 -2.29643e-19)
(-0.408054 0.0340213 -1.11738e-20)
(0.110212 0.212542 -5.38726e-20)
(0.0295571 -0.387619 -9.91762e-21)
(0.66093 0.67561 2.20843e-18)
(-0.166746 0.200825 1.27912e-20)
(0.00943851 0.135943 -4.16706e-20)
(0.0722361 -0.0191744 1.48241e-21)
(-0.0781053 0.154015 7.74945e-20)
(-0.330477 0.0712622 -3.24125e-20)
(-0.443827 -0.00943763 -3.12892e-20)
(-0.0860542 0.0977614 -7.01913e-20)
(-0.0130588 0.114311 -1.01862e-20)
(-0.0326704 0.240114 6.20855e-20)
(0.0108753 0.112131 -5.00073e-20)
(0.0411021 0.140064 -1.87483e-19)
(-0.0880528 0.217615 -2.15746e-19)
(-0.062583 0.229787 -1.08179e-19)
(-0.487115 -0.147705 6.31232e-20)
(-0.0241287 0.201624 3.30017e-19)
(-0.00502222 0.129267 1.24099e-19)
(-0.205688 0.00483605 -4.40704e-19)
(-0.0431728 0.104554 -3.43779e-20)
(0.0654469 0.411722 -2.42264e-19)
(-0.297678 0.0649344 -2.53752e-20)
(-0.249368 0.0944776 7.39848e-21)
(-0.00272433 0.113475 -1.93589e-20)
(-0.173269 0.0338528 7.33415e-20)
(-0.188732 0.0863084 -3.7188e-19)
(0.0316986 -0.381622 1.6192e-19)
(-0.0174098 0.158914 3.8907e-20)
(-0.0386539 0.20697 6.1909e-20)
(0.0223388 0.156264 -5.03566e-20)
(-0.487935 -0.286983 -4.49255e-19)
(0.0448056 -0.345865 2.07678e-19)
(-0.101172 0.0827179 -1.27605e-19)
(-0.035931 0.108374 -1.30377e-20)
(-0.0487904 0.237155 -9.37065e-21)
(0.0574863 -0.222818 9.40707e-20)
(0.0160655 0.10298 1.00869e-19)
(-0.0313803 0.160738 3.74022e-20)
(-0.10967 0.0767954 2.0546e-19)
(-0.0802579 0.230959 -1.09121e-19)
(-0.0397739 0.0780376 -1.95721e-20)
(-0.0265522 0.109815 1.86741e-19)
(0.000366758 0.112258 -5.86775e-20)
(0.0549296 -0.419681 7.54429e-19)
(-0.194471 0.0855471 2.09371e-21)
(0.405335 -0.333792 -6.00117e-19)
(0.0350324 -0.365109 -1.59339e-19)
(0.0793104 0.164812 1.34395e-20)
(0.0134201 0.217796 1.47235e-21)
(0.618658 0.0418389 9.60301e-19)
(-0.0749829 0.0879314 -7.41548e-20)
(-0.299108 -0.640609 1.54226e-18)
(-0.13153 0.0553212 1.71647e-19)
(0.00730057 0.128664 -3.08346e-19)
(-0.0231577 0.110351 1.98031e-19)
(-0.0697263 0.138046 1.10571e-19)
(0.0173459 0.0984966 5.06496e-20)
(-0.198086 0.183021 -3.7342e-21)
(-0.0682393 0.238014 -1.34884e-20)
(-0.111107 0.218051 1.94184e-19)
(-0.0553267 0.0724491 1.11779e-19)
(0.0284369 -0.412982 4.3709e-18)
(-0.346422 -0.0103765 -1.37038e-20)
(0.0578797 0.0940218 1.72671e-19)
(0.210199 0.0255736 -1.05264e-19)
(-0.375664 -0.0392093 -1.31673e-20)
(0.0364032 0.135239 -2.54561e-19)
(0.0999751 -0.41452 5.62873e-18)
(0.102527 0.192077 -2.73465e-19)
(-0.0149219 0.109839 9.30569e-22)
(-0.43778 -0.135018 -4.90946e-20)
(0.0582352 -0.460594 4.96751e-20)
(0.0511266 -0.298377 -1.95764e-19)
(0.00666413 0.105361 1.67473e-19)
(-0.0493835 0.0983658 1.13063e-19)
(-0.081902 0.084105 -2.43027e-20)
(0.0260294 -0.395584 2.19797e-18)
(-0.0576938 0.0938362 -5.68351e-20)
(0.0225686 0.0899967 9.02491e-20)
(-0.0941796 0.234215 -2.23425e-19)
(-0.0449964 0.100959 9.12004e-21)
(-0.460479 -0.236237 -7.08759e-20)
(0.289899 0.0897942 -1.87241e-19)
(-0.0837846 0.229751 -7.74297e-20)
(-0.00987592 0.110129 -1.21847e-21)
(0.0187103 0.149785 -1.08789e-19)
(-0.0360868 0.104316 -3.40152e-20)
(-0.0433126 0.200236 -1.29631e-19)
(0.066083 -0.297786 1.13154e-19)
(-0.143464 0.0187855 4.99805e-20)
(0.422529 -0.131011 4.53724e-19)
(-0.0790133 0.135525 -1.67141e-19)
(0.0357736 -0.358845 -3.00366e-19)
(-0.0319113 0.151553 8.83906e-20)
(-0.0942987 0.0728459 -5.55361e-20)
(-0.240748 0.0670298 1.87732e-20)
(0.00885524 0.101618 1.36426e-19)
(-0.0599866 0.205449 2.41718e-19)
(-0.0149861 -0.370043 1.50802e-18)
(-0.0308929 0.106132 -7.8738e-20)
(-0.0457938 0.152586 -8.99515e-20)
(-0.398771 -0.471732 1.60178e-19)
(-0.281585 0.021775 -2.03253e-20)
(0.0231603 0.0854037 9.03606e-20)
(-0.164857 0.087794 -3.62504e-19)
(0.0232477 -0.396454 4.72475e-19)
(-0.00210546 0.105352 -2.00329e-19)
(0.181737 0.107703 -8.91349e-20)
(0.0305639 0.0823046 -4.1455e-20)
(0.0712925 0.158551 -1.94079e-20)
(-0.102145 0.0662503 -7.77493e-20)
(-0.11812 0.0438446 -1.25369e-20)
(-0.108708 0.201223 2.97142e-19)
(-0.113373 0.208219 2.41898e-22)
(0.215374 -0.359421 8.02406e-20)
(-0.0233046 0.105444 8.65484e-20)
(0.0133004 0.0932102 -2.51633e-20)
(0.0388171 -0.325121 -3.25691e-19)
(-0.447699 -0.528431 3.83116e-19)
(0.0403925 0.124541 -4.26142e-20)
(0.0217106 -0.389162 1.36116e-19)
(0.0571839 -0.281666 2.36524e-19)
(-0.200527 0.15235 -7.97124e-21)
(-0.140821 0.0212683 9.48119e-20)
(-0.179393 0.072718 -9.23541e-20)
(-0.0783796 0.125044 1.62891e-20)
(-0.12371 0.225711 -1.24766e-19)
(-0.070469 0.0820781 -1.89152e-20)
(-0.128131 0.0275745 4.82055e-22)
(0.000745898 0.102408 -2.47728e-19)
(-0.0193356 0.105436 2.92182e-20)
(-0.0428724 0.0974887 1.03178e-20)
(-0.178404 -0.0152431 -3.36869e-19)
(-0.0554349 0.0908332 -2.21195e-19)
(0.0387975 -0.467737 1.64185e-19)
(0.249628 0.0954219 -1.11859e-19)
(-0.0503316 0.0941779 -1.17644e-19)
(0.0147158 0.089212 -5.30798e-21)
(0.14896 0.231026 -5.45474e-20)
(-0.367279 -0.145361 -8.55902e-21)
(-0.60889 -0.312894 5.01206e-18)
(-0.149292 0.0678907 -2.74103e-19)
(-0.078557 0.0770616 -4.53298e-21)
(-0.0383263 0.0994296 1.88257e-20)
(0.0861843 -0.276248 2.46687e-19)
(-0.393221 -0.213548 -1.71938e-20)
(-0.255997 0.0265273 -7.80427e-20)
(0.0247507 0.138766 8.13539e-20)
(-0.010752 0.103113 2.69325e-20)
(0.110949 0.174547 -1.5747e-19)
(-0.0541711 0.0674382 -2.71119e-20)
(-0.311998 -0.0617197 -8.89598e-21)
(-0.0297523 0.100466 -1.9017e-19)
(0.00586148 0.095041 2.02425e-19)
(-0.4105 -0.424146 -4.86908e-20)
(0.0246837 -0.373668 4.73425e-19)
(0.0338542 -0.589405 7.24577e-18)
(-0.0871719 0.0697099 4.54931e-21)
(-0.0618428 0.194385 6.58014e-20)
(-0.0961814 0.0582275 1.04414e-20)
(-0.108025 0.046553 6.53031e-21)
(-0.00724273 0.101174 5.24564e-20)
(-0.0439343 0.141618 -1.52435e-19)
(-0.133305 0.197113 -6.29318e-20)
(-0.165725 0.072 1.10957e-20)
(0.0184143 0.0818079 3.68164e-21)
(-0.289218 -0.0377909 -2.31178e-21)
(-0.0194666 -0.375372 1.3688e-18)
(-0.441558 -0.509334 1.59076e-22)
(-0.0792394 0.198454 -1.51624e-19)
(-0.0563311 0.142492 7.90206e-20)
(0.0326631 -0.34409 4.78524e-19)
(0.113022 0.0614128 3.15953e-19)
(-0.0259973 0.100509 -1.51245e-19)
(-0.13367 0.196885 1.04507e-19)
(0.0276135 0.0785929 8.26528e-21)
(-0.220032 0.138188 -1.82105e-20)
(0.00734931 0.0913685 1.1817e-19)
(0.0717766 0.0840519 -9.96429e-21)
(0.0759184 0.142805 -8.55511e-20)
(-0.113381 0.0248504 -9.9792e-22)
(-0.124445 0.219269 -2.15711e-19)
(0.0341426 0.122649 9.01221e-23)
(0.153252 0.111163 -2.2823e-19)
(-0.0183986 0.0987604 1.14815e-20)
(-0.00103077 0.0952752 -2.18746e-19)
(0.0841308 -0.276449 1.11612e-19)
(0.116315 0.0370055 -2.23015e-20)
(0.0238743 -0.36754 5.22066e-19)
(-0.37787 -0.67595 2.16072e-19)
(-0.0471934 0.0903028 2.2741e-20)
(0.0402088 -0.305284 -9.93909e-20)
(0.0685943 -0.273896 5.80935e-21)
(-0.12147 0.0111131 4.77075e-20)
(-0.0330141 -0.282297 3.37562e-18)
(-0.0433501 0.0921683 6.13428e-21)
(-0.0689547 0.0774023 -2.69475e-20)
(-0.182622 0.0453486 2.46893e-19)
(0.0111097 0.0843617 1.53813e-19)
(-0.0357471 0.0938317 7.58527e-20)
(0.0626089 0.0846602 -6.70548e-20)
(0.100301 0.0674824 3.77626e-19)
(0.107905 0.0123585 -3.74027e-19)
(0.085183 -0.282889 7.58504e-20)
(0.050003 -0.287511 3.53979e-19)
(-0.0147643 0.0979222 1.28308e-20)
(0.0197916 0.0784073 4.66658e-21)
(0.0222468 0.221457 5.31443e-20)
(-0.0742653 0.0732705 -4.61567e-22)
(0.0211658 0.133619 1.65662e-19)
(0.0623765 0.104099 4.46418e-20)
(0.0159822 -0.382312 1.04802e-18)
(0.0492416 0.0674247 4.06287e-20)
(0.033234 -0.3165 -3.66899e-19)
(0.000938233 0.0921428 -2.07388e-19)
(-0.705908 -0.554571 1.14041e-18)
(-0.055968 0.0854042 -9.8105e-21)
(-0.0316983 0.0947648 6.10536e-20)
(-0.0829296 0.0642696 -1.06101e-19)
(0.0259719 -0.356001 -4.08675e-19)
(-0.0995633 0.0420101 5.49922e-21)
(0.0818307 0.0721431 -1.52697e-19)
(0.0963039 0.160753 -1.49832e-19)
(-0.338255 -0.353324 -6.22456e-21)
(0.0489178 0.0857033 7.60661e-21)
(-0.00783853 0.0937835 4.54989e-20)
(-0.134674 0.0675587 -2.86597e-19)
(-0.157491 0.177704 -1.73985e-20)
(-0.09028 0.0571593 -1.5774e-19)
(0.0885194 -0.002763 -3.72831e-20)
(0.106202 0.0451461 4.7224e-21)
(-0.310504 -0.187744 -1.16593e-21)
(0.0381337 0.0597638 1.7306e-20)
(-0.658534 -1.44827 3.43954e-18)
(0.0933289 -0.276887 -1.48013e-19)
(-0.0242863 0.0937389 -8.57584e-21)
(0.0122568 0.0809564 1.3483e-19)
(0.0709979 -0.107319 5.4698e-18)
(0.0900809 0.00650077 -1.5156e-19)
(0.101895 0.0233496 -1.68815e-19)
(-0.348805 -0.450224 -1.30304e-20)
(-0.105545 0.0322387 5.93314e-22)
(0.0601589 -0.425776 2.22372e-19)
(-0.113875 0.0177742 5.89147e-21)
(0.0264299 0.0736907 4.50927e-20)
(0.0739965 -0.0111799 2.49783e-20)
(-0.30143 -0.137633 -5.77543e-23)
(-0.121012 0.170065 -1.28323e-19)
(0.0584915 -0.262417 3.78881e-19)
(0.00496444 0.0856956 -3.34078e-20)
(-0.215135 0.121902 -1.65608e-19)
(-0.0517297 0.129667 2.8357e-20)
(0.0199878 -0.382868 2.03597e-19)
(0.0602782 0.110542 1.95301e-20)
(0.0343345 0.0542639 7.25166e-21)
(-0.0209534 0.0933527 1.4385e-21)
(-0.227857 -0.00524373 -3.74557e-19)
(0.0733932 0.0750525 -7.50045e-20)
(0.0411364 -0.469281 3.34472e-19)
(-0.00531384 0.0914571 5.22209e-20)
(-0.117172 0.0180035 7.92593e-20)
(-0.077319 0.182708 -7.31431e-20)
(0.0680128 0.137853 -3.13155e-20)
(0.0778986 -0.000410549 -2.08462e-21)
(0.0749632 -0.270293 -3.60182e-19)
(-0.348795 -0.654444 -3.97023e-20)
(-0.196568 -0.369257 6.5344e-19)
(0.0287902 0.224646 1.47074e-19)
(-0.0142003 0.0906669 6.53545e-21)
(-0.153207 0.204114 -2.04315e-19)
(0.0269326 -0.335393 7.97556e-19)
(0.0906502 0.0566651 -2.26823e-19)
(-0.122934 0.0511923 -1.28291e-19)
(-0.062858 0.129214 8.90566e-20)
(0.0586777 0.0764841 -4.75954e-20)
(-0.151769 0.0562608 2.88705e-20)
(-0.0399777 0.0867828 -1.39399e-19)
(0.0450605 -0.421303 5.44251e-19)
(0.0308777 0.0698076 -1.0013e-19)
(0.00623209 0.082654 -1.56019e-19)
(0.0751736 -0.00250186 6.80286e-21)
(-0.0363571 0.087997 -1.15551e-19)
(0.0777078 -0.302305 2.69475e-19)
(-0.0474371 0.0844171 1.29619e-20)
(-0.368758 -0.677011 -8.37287e-21)
(-0.0651087 0.0732725 1.27324e-19)
(-0.0713899 0.0684318 3.67792e-20)
(-0.000574816 0.0859456 -1.32261e-19)
(-0.0293356 0.0880937 3.04273e-20)
(-0.0495442 0.0629722 1.18982e-19)
(-0.247356 -0.0768816 4.13859e-21)
(-0.0113106 0.0892245 1.62318e-20)
(-0.171103 -0.0523044 3.88413e-21)
(-0.0515938 0.0816951 -2.82547e-20)
(0.0252879 0.12577 6.21371e-20)
(0.0155818 0.0746119 8.33462e-21)
(-0.0776926 0.0626711 7.22142e-20)
(0.0902595 0.195603 -1.73718e-19)
(-0.0958891 0.183685 7.55562e-20)
(0.081486 0.0610648 -2.62682e-19)
(-0.0859487 0.0521823 1.6801e-20)
(0.0214523 0.0705059 2.84196e-20)
(0.0183963 -0.378439 -5.56564e-19)
(-0.0259647 0.0881922 1.48498e-20)
(0.0514393 0.0782441 -2.16754e-20)
(0.0513414 0.0940868 2.03252e-19)
(0.0930516 0.0386547 -2.68686e-20)
(0.0259767 -0.350078 -8.24581e-19)
(-0.554436 -0.808169 2.87339e-19)
(-0.0929074 0.0441756 8.48188e-21)
(0.0496514 -0.269913 2.35254e-19)
(-0.0195351 0.0865037 2.70276e-21)
(-0.139537 0.0545669 3.60955e-20)
(0.00945896 0.0768526 9.4881e-20)
(0.000931974 0.0832647 -3.43458e-20)
(-0.00595536 0.0849924 4.69018e-20)
(-0.0203564 -0.360047 2.27718e-18)
(0.213957 0.0661885 -1.68376e-19)
(0.057235 -0.468828 6.59653e-19)
(-0.225596 -0.0537792 1.65368e-20)
(-0.453923 -1.13524 1.01649e-19)
(-0.165038 0.16606 5.69893e-19)
(-0.163611 0.0256647 1.46915e-19)
(0.088763 0.0221506 6.22901e-20)
(0.0675138 0.0656355 -2.17045e-20)
(-0.25316 -0.35334 -1.77429e-21)
(-0.270057 -0.275512 -1.25719e-21)
(-0.107665 0.0103243 2.11961e-20)
(-0.10393 0.0172741 3.18557e-21)
(-0.0166318 0.0857673 5.45571e-21)
(-0.1539 0.198095 -2.19595e-19)
(-0.0966591 0.0300524 -1.78093e-21)
(0.116405 -0.209945 -1.73235e-20)
(-0.237525 -0.541281 -1.58561e-20)
(0.085631 0.044303 -5.80632e-20)
(0.0906435 -0.286253 7.67477e-20)
(-0.138709 0.155482 1.8884e-19)
(0.0272946 0.0784767 2.48914e-19)
(-0.0333855 0.0819126 1.41775e-20)
(0.0159133 0.0707842 3.10132e-21)
(-0.2475 -0.166342 -1.63128e-22)
(0.0602365 0.0680173 -3.28328e-20)
(0.0147046 -0.366071 1.23918e-19)
(-0.00405852 0.0828584 5.70743e-20)
(-0.0110526 0.0827796 1.46379e-20)
(-1.76517 -0.241422 1.79911e-19)
(0.0288519 0.0625562 4.06036e-21)
(-0.0399593 0.0809481 5.59143e-20)
(0.101012 0.145877 3.49887e-20)
(0.0800262 0.0103356 -6.67687e-21)
(-0.0434991 0.0793206 2.12546e-20)
(-0.06232 0.0685212 -1.60847e-19)
(-0.0301264 0.0825027 1.2224e-20)
(-0.250876 -0.586126 -3.12533e-20)
(0.00430272 0.0779674 -1.7767e-19)
(0.0104458 0.0739833 3.30523e-20)
(0.0841051 0.0285772 1.50794e-20)
(-0.0668481 0.0648514 -1.52213e-19)
(0.139164 -0.205686 -4.00007e-19)
(-0.02397 0.0817213 5.70862e-21)
(-0.0598759 0.119842 -7.26246e-20)
(-0.074297 0.0576951 3.12618e-20)
(0.0210176 0.0671357 4.0454e-20)
(-0.229881 -0.13119 -1.30391e-21)
(0.033752 0.0406027 -3.50206e-21)
(0.0123276 -0.359571 3.10636e-19)
(-0.116268 0.0500623 -8.35576e-20)
(0.0110782 -0.367134 9.70544e-19)
(0.0736686 0.052832 2.09644e-20)
(-0.154232 0.0332182 2.44617e-20)
(0.0461835 0.549611 3.13586e-19)
(0.0291064 0.317411 1.06252e-19)
(0.0743101 0.00394022 -2.98567e-21)
(0.0705053 0.124159 3.74203e-21)
(-0.249144 -0.737136 -8.25436e-20)
(-0.0802808 0.0515662 1.76017e-20)
(0.0475141 0.0704711 8.19516e-21)
(0.0873414 -0.254534 7.90646e-19)
(-0.0088263 0.0812884 2.98917e-20)
(-0.103265 0.0134431 1.73017e-20)
(-0.0210975 0.0815028 2.09676e-21)
(-0.0985953 0.0240245 -4.5054e-21)
(-0.0508426 0.0759001 5.36584e-20)
(-0.102511 0.0166776 6.30195e-21)
(0.0246401 0.0637938 3.41491e-21)
(0.0783371 0.0157875 7.07187e-20)
(-0.0865027 0.0402647 4.54977e-21)
(-0.131018 -0.410875 6.17659e-18)
(0.0405729 -0.0229113 5.52179e-22)
(-0.0116556 0.289053 -6.38399e-19)
(0.0432427 -0.332555 1.29742e-19)
(-0.000306722 0.0781984 1.02371e-19)
(0.06676 0.056222 1.30533e-20)
(0.0053213 0.075469 -9.24878e-20)
(-0.246968 -0.846486 2.54588e-19)
(-0.0155739 0.0795305 6.60685e-21)
(-0.0481297 0.0581731 -1.19922e-20)
(-0.19075 0.135959 4.79331e-19)
(0.0682758 -0.240597 1.00806e-19)
(0.0771777 -0.258305 4.2411e-19)
(-0.0883467 0.162302 8.93688e-20)
(0.0339901 -0.30091 -7.14337e-19)
(0.0729325 0.00779269 -7.86253e-21)
(0.363998 -0.244531 2.36815e-19)
(-0.107542 0.0383754 -5.11845e-21)
(0.0208965 -0.32394 2.23746e-19)
(-0.0905347 0.0336285 4.92302e-21)
(-0.134037 -0.0621061 2.25683e-19)
(-0.186643 -0.744552 6.28922e-19)
(-0.0131896 0.0786558 6.92964e-21)
(0.0550884 0.0603903 1.38161e-19)
(-0.0276206 0.076449 4.74275e-21)
(-0.00461898 0.0775179 6.41613e-21)
(0.076055 0.0387612 1.07928e-19)
(-0.0365754 0.0754106 5.80584e-20)
(-0.130943 0.0423168 1.06538e-20)
(-0.0334575 0.0764219 2.54383e-20)
(0.0937065 -0.282109 1.40937e-19)
(-0.0641075 0.059901 2.94667e-20)
(0.0891353 0.137956 1.52618e-20)
(-0.173459 -0.413962 -5.46706e-21)
(0.000889616 0.0760258 1.24694e-19)
(-0.0247952 0.0766651 2.72178e-21)
(0.0700638 0.0431559 1.38864e-19)
(-0.058062 0.0643228 -1.1537e-20)
(0.029482 0.0563195 1.83938e-20)
(0.0156961 -0.380652 -4.83992e-19)
(-0.191275 0.176886 -3.00523e-19)
(0.0252422 0.219377 -1.09041e-20)
(-0.266506 0.310349 -2.21869e-19)
(0.0175074 -0.341964 2.50184e-19)
(-0.160576 -0.00384968 -2.46099e-19)
(-0.0427869 0.073618 -1.98605e-20)
(-0.213842 -0.217731 -2.8934e-22)
(0.0825552 -0.272336 -4.28337e-19)
(0.0488433 0.0628697 1.59325e-19)
(0.017091 0.0649034 7.29019e-20)
(-0.210945 -0.272691 -2.89169e-21)
(-0.0691395 0.0553168 2.50972e-20)
(-0.00867473 0.0758447 5.70526e-20)
(-0.739707 -0.431613 8.49877e-19)
(-0.150356 -0.463077 -4.30121e-21)
(0.16544 -0.0621535 -9.0441e-21)
(-0.0465013 0.0712723 -6.8774e-20)
(0.0125513 0.0683378 -1.46359e-20)
(0.180525 0.0776889 6.73499e-20)
(0.0629907 0.121346 3.94898e-20)
(-0.0194182 0.0755413 3.47144e-21)
(0.0407398 -0.284796 5.88936e-19)
(-0.0236003 -0.34878 -8.37462e-19)
(-0.182848 -0.0771464 3.47502e-21)
(0.0563807 -0.247845 -4.64489e-20)
(-0.121523 0.0396099 -5.54434e-20)
(-0.0758193 0.0469242 1.4815e-20)
(-0.00316206 0.0757466 -4.52405e-20)
(0.0167353 -0.350245 -4.7991e-19)
(-0.12067 -0.602234 -6.5906e-21)
(0.0905073 -0.272274 2.64931e-19)
(0.0754507 -0.00878891 9.37619e-21)
(0.0078748 0.0707021 1.37119e-20)
(0.0603465 0.0493861 6.97708e-21)
(-0.0859171 0.0132479 4.53374e-21)
(0.0747079 0.0257778 -3.3706e-20)
(-0.0169808 0.0751809 -1.44708e-21)
(0.0354753 0.093487 -3.03192e-20)
(0.0226836 0.0577362 -2.04688e-20)
(-0.104772 0.158814 -2.10963e-19)
(-0.172053 -0.150559 -2.96681e-21)
(0.0703901 0.0305348 -6.08016e-20)
(-0.0901072 0.0229997 -6.3446e-20)
(-0.0976103 -0.646412 -7.07081e-20)
(-0.00694599 0.0745444 2.20572e-20)
(-0.0934131 0.0137326 6.07954e-20)
(-0.0805397 0.0410079 1.53416e-20)
(0.0545172 0.0524447 6.85167e-23)
(-0.139255 0.0193123 -3.06648e-20)
(-1.73008 -0.463484 5.68531e-18)
(0.00361905 0.071829 1.58193e-20)
(-0.030531 0.0708089 8.40146e-21)
(-0.0123512 0.0732546 -4.72588e-20)
(-0.0277893 0.0714092 3.36264e-21)
(0.00837678 -0.374059 -2.37962e-19)
(-0.0875077 0.0164066 5.51845e-21)
(-0.129133 -0.672597 1.07799e-18)
(0.14687 0.786167 -1.05272e-21)
(-0.00687557 0.2071 -9.24997e-19)
(0.0783481 -0.000167943 1.5363e-22)
(-0.0359996 0.0700856 -1.00723e-19)
(-0.0226152 0.0710017 2.19717e-21)
(0.682504 0.435958 1.49752e-19)
(0.0164251 0.0620024 7.25875e-20)
(-0.0390979 0.0686058 -1.27305e-19)
(-0.0104241 0.0724456 -7.02565e-20)
(-0.1018 0.0344696 5.01621e-20)
(0.0125838 0.0653617 -4.19049e-20)
(-0.202148 0.129999 -9.51115e-20)
(-0.0835755 0.0309982 2.37211e-20)
(0.0628515 0.0380091 -3.84282e-20)
(0.0120919 -0.368011 1.5737e-19)
(-0.133367 0.0252265 4.35505e-20)
(-0.0556081 0.0596182 6.9918e-21)
(0.0191418 0.059013 -5.85399e-20)
(-0.000156357 0.0720727 5.81067e-21)
(0.0707435 0.0154217 -7.00093e-20)
(0.00425312 -0.360076 1.9316e-19)
(-0.0869502 0.0170786 2.47938e-20)
(-0.162521 -0.11566 6.36205e-22)