/*--------------------------------*- C++ -*----------------------------------*\
  =========                 |
  \\      /  F ield         | OpenFOAM: The Open Source CFD Toolbox
   \\    /   O peration     | Website:  https://openfoam.org
    \\  /    A nd           | Version:  8
     \\/     M anipulation  |
\*---------------------------------------------------------------------------*/
FoamFile
{
    version     2.0;
    format      ascii;
    class       volScalarField;
    location    "0.7";
    object      alpha.water;
}
// * * * * * * * * * * * * * * * * * * * * * * * * * * * * * * * * * * * * * //

dimensions      [0 0 0 0 0 0 0];

internalField   nonuniform List<scalar> 
1924
(
0.0754384
1.97876e-08
0.00477089
0.00116627
1.95391e-08
0.000587388
0.00014095
0.00198541
0.000476902
0.00118456
0.000282188
0.000271649
0.19886
0.000282188
6.10686e-05
5.87808e-05
0.0843488
0.00115996
0.520795
0.00240344
0.999997
2.29919e-06
0.0608649
0.000297583
1.04667e-07
0.00112111
0.00556005
7.54253e-09
1.95313e-08
0.000432547
0.0120021
1.77232e-08
0.100411
0.0316566
1.69091e-10
0.0140237
8.4273e-09
6.13729e-08
4.8206e-06
0.0319382
9.95749e-09
0.952157
1.39786e-07
0.0601548
6.49116e-07
4.92258e-08
0.0145073
8.26362e-06
1
1
0.00208221
0.208593
7.04222e-06
0.00187469
0.000590201
8.46487e-11
0.313109
2.22114e-07
9.6035e-09
0.00015912
0.0798216
5.75745e-05
0.872871
3.94378e-05
0.000258231
-3.66982e-11
4.32622e-05
0.0161219
3.06159e-08
0.204528
0.019222
3.93478e-05
1.47508e-05
0.000398377
8.84259e-06
1.20064e-05
5.03291e-13
-2.07114e-09
6.59326e-05
0.928657
5.41485e-11
0.00714199
0.0009722
0.854363
0.335778
0.0138974
7.64197e-09
6.14917e-05
1
0.0828475
4.26751e-05
0.0071438
2.03657e-07
0.000178537
0.0178008
0.000218088
4.35755e-13
1.01173e-11
0.00038317
1.20164e-05
0.00178912
0.0727148
0.0023578
0.00507827
0.00226886
4.42572e-14
0.000764163
0.0014773
3.55805e-06
0.000950837
9.70987e-14
4.91505e-08
1.64454e-08
0.00146465
4.00119e-12
0.875439
0.00481834
5.35158e-05
0.000255533
5.16045e-13
0.567623
1
1
0.318213
2.30858e-06
0.00559491
0.000337884
1.68163e-14
0.00235364
1
6.96386e-14
0.00390756
0.0375215
0.00146351
0.0638355
0.00559491
1.58095e-07
1.77304e-06
0.0035464
4.83889e-10
1.19516e-09
8.48875e-06
0.013916
0.140706
0.00497614
1
0.00396611
0.0201693
0.000322059
0.000110131
0.000515949
1
0.000330446
0.00553678
0.00362893
0.0055926
1
1.07597e-05
8.66796e-14
0.0129186
0.00146176
0.000252021
0.00507862
1
0.00373662
0.00562488
0.00251959
1
5.19568e-14
0.00292284
-9.09924e-08
0.000372382
7.38852e-14
1.20237e-05
1.81259e-13
0.00184844
0.000125723
0.0148143
0.00856532
0.000742855
0.000541888
9.41334e-06
5.13526e-09
0.00120837
0.999999
3.75547e-08
0.000105536
1.01443e-05
6.95985e-14
0.000593133
0.00234852
0.00197415
3.61626e-13
0.000372275
4.05278e-05
1
8.53235e-06
0.00421416
0.00552257
0.00132432
0.386062
3.7411e-08
0.0056164
0.0040067
1.91947e-08
3.67268e-05
0.000372169
7.55417e-05
0.0207103
0.0375215
1
0.000834469
0.00460002
7.39562e-05
1.46705e-06
3.22971e-14
0.000291601
0.00515781
0.00344211
1.64637e-14
0.00557868
0.000273195
0.000807742
0.00206224
0.00433678
1.28514e-06
4.02347e-13
5.44022e-12
1.42974e-05
0.00196634
0.0056847
0.000138406
0.00549164
0.00497965
2.22555e-05
0.0209634
0.00462071
0.00464342
0.000215672
1
3.86549e-07
2.07863e-07
0.000875105
7.58173e-05
0.0128941
0.0177413
0.00464048
1.64179e-13
1.62044e-14
1.07028e-12
2.53964e-08
1
1.36988e-05
0.00560538
6.92648e-14
0.000272948
0.00125471
2.63762e-07
0.00556723
0.00464902
0.00351728
3.39154e-05
1.07875e-05
3.25353e-14
1.90152e-08
1.25046e-15
0.999904
1.11744e-14
0.000178537
0.350225
0.000123947
0.00102884
1.83948e-07
8.43877e-09
2.77938e-06
7.35679e-11
0.00218662
1.61766e-06
0.00556113
0.00462766
0.530766
1
2.85121e-05
1.38268e-05
0.567895
5.20808e-05
4.2528e-13
1
0.00464384
1.40286e-07
3.34739e-05
1.32685e-06
4.74305e-08
0.00261864
0.999994
0.000826498
6.23511e-05
0.00162673
1.78154e-14
0.00198013
1
0.00350314
6.35156e-08
6.03092e-05
0.00460237
8.36528e-09
0.999897
4.33621e-06
8.74753e-09
0.000257296
7.74961e-05
0.00876445
2.64947e-05
6.59543e-08
1.17361e-12
0.841044
0.00187722
0.00463894
1.54149e-05
4.22906e-05
6.90735e-07
7.58505e-06
0.00165314
0.00010814
0.000398069
3.63903e-11
1.51908e-08
8.4273e-09
1.54322e-13
1.84091e-05
0.00124287
3.81779e-05
0.000114338
0.00461003
8.19036e-16
4.74305e-08
0.000264139
1.95623e-05
1.76607e-05
0.000615592
1.48466e-11
0.00112554
2.96974e-08
1.85637e-05
4.79204e-05
3.85317e-07
3.49658e-05
1.68181e-06
0.000129746
8.53745e-09
0.00205506
3.31557e-07
0.0113963
6.63852e-08
0.0243843
1.34975e-12
1
0.00327979
3.67039e-06
0.000218088
4.74305e-08
0.00134101
5.69496e-08
2.12484e-06
0.00017509
0.000372169
4.04673e-08
2.1242e-06
1.14746e-05
1.43539e-05
7.09728e-06
4.20626e-05
8.43877e-09
5.77141e-06
0.00711845
0.607989
0.000115909
3.89994e-05
1.99182e-08
1.27723e-07
4.80433e-08
1.14005e-15
8.74753e-09
1.37453e-05
1.9178e-05
7.41636e-06
8.21475e-16
1.66079e-06
0.00708886
0.00065228
0.0208957
7.53523e-05
1.21194e-08
9.52084e-06
2.15198e-05
0.0374986
0.00120632
2.90925e-08
3.08768e-05
1.5812e-05
1
8.3572e-16
0.00524866
0.000178537
1
0.000322059
6.32223e-11
5.28039e-07
2.91475e-06
0.00467101
0.000131811
4.0596e-05
5.11927e-06
0.00373461
0.000230276
3.68692e-07
7.579e-11
0.000643853
0.00188048
1.51167e-13
4.73575e-05
2.14795e-06
6.52888e-11
0.03701
0.00208524
4.17107e-11
3.78088e-12
3.60125e-07
3.60678e-08
4.68283e-07
8.73148e-05
4.25956e-11
5.51258e-07
5.14148e-06
2.56158e-05
0.000320656
8.6797e-07
0.923585
0.00107185
1.47566e-06
3.04175e-07
0.00310977
2.98142e-05
0.00635827
1.69571e-07
0.126971
0.000820924
8.19036e-16
8.53545e-09
9.26166e-07
3.31804e-05
1.83975e-06
3.42414e-05
2.73407e-05
0.00136245
1.12057e-08
2.01828e-06
1.6429e-05
6.50843e-06
3.44579e-08
7.0524e-12
3.28783e-08
0.970145
0.000109509
0.00521851
6.10836e-06
2.44641e-07
3.24035e-06
0.00385773
0.00116989
0.00661865
5.14148e-06
3.51256e-07
6.18255e-11
2.0596e-06
1.12949e-12
1.06092e-08
4.50848e-06
3.15756e-08
1.34388e-07
0.000423596
2.80562e-05
0.000322059
2.11027e-07
3.45648e-08
0.00662018
4.57444e-07
1.99379e-06
4.68237e-07
1.51927e-11
0.980255
4.5955e-07
4.9944e-06
8.89274e-14
3.74464e-11
9.56967e-11
3.20572e-08
5.13748e-05
1.09775e-06
0.000154142
3.37823e-11
1.67115e-05
1.90788e-06
3.8219e-07
0.044651
2.87646e-07
8.11173e-06
0.00568529
2.24225e-06
1.89871e-07
1.89345e-15
7.59219e-11
2.53234e-08
3.41178e-05
1.06692e-06
5.7258e-08
3.92639e-08
0.0012308
0.00174591
4.80433e-08
0.000506605
1.26729e-05
2.17483e-11
8.16035e-07
5.30353e-06
0.00299264
5.55534e-14
0.00856532
0.00658809
0.000480745
4.77523e-05
5.11927e-06
6.63682e-06
0.0121738
0.00292567
3.01214e-08
0.000849297
2.10435e-06
0.310923
0.00661975
3.60678e-08
0.00014352
0.956565
1.43565e-15
6.06026e-11
4.56093e-07
5.75351e-12
6.19134e-08
3.08696e-08
4.87576e-07
4.57255e-07
0.000164764
1.99869e-07
4.9706e-06
2.48307e-06
0.0163617
0.00856134
0.156446
0.00506756
9.7479e-08
0.00422166
0.000729986
0.000564442
1.92764e-06
6.06555e-06
0.000642877
5.34085e-12
8.86192e-14
1.22848e-07
5.64669e-07
9.37589e-11
9.00138e-05
2.53283e-06
1.81362e-08
8.19036e-16
3.01214e-08
0.0134576
0.0138649
2.88144e-11
0.00544375
8.80754e-08
3.44579e-08
0.00341751
7.37987e-08
0.0678246
0.494913
1.19491e-08
0.0103864
3.70699e-11
4.40274e-05
0.00661975
4.08969e-05
0.422605
0.343926
0.871684
2.84907e-11
2.94033e-08
3.72307e-12
3.12258e-08
2.42517e-05
0.000446027
7.68618e-06
5.30586e-05
5.7678e-08
5.32254e-06
3.17396e-05
0.00714294
2.96904e-15
2.10157e-06
0.000498137
0.00662057
3.94432e-05
0.0174708
2.4231e-11
7.54386e-08
5.32835e-08
9.89425e-08
8.56042e-05
0.000459476
6.54015e-08
2.48818e-11
1.86344e-11
8.92335e-14
0.000469938
0.000896921
3.88545e-14
0.0085613
5.2637e-08
0.00699427
0.0196003
4.66737e-07
4.57246e-07
9.22824e-12
5.74162e-05
4.94885e-06
0.000452856
4.57264e-07
0.0156601
1.74516e-06
6.11772e-11
8.81468e-05
1.81215e-08
9.84089e-07
2.6341e-06
2.23275e-06
4.14577e-05
1.34152e-07
1.88635e-06
8.36438e-06
7.49896e-06
0.00309749
1.74518e-08
1.61508e-06
9.6439e-08
0.00856131
1.67094e-07
1.6254e-05
3.26574e-15
0.00167558
0.0196624
9.26411e-05
0.0726783
2.97557e-14
4.87689e-11
1.55669e-07
1.02279e-08
0.0014814
5.93135e-08
4.87869e-06
9.98733e-07
2.66358e-07
1.36538e-14
0.994177
1.01357e-11
4.11055e-05
2.31152e-11
8.97585e-06
3.86549e-07
0.997814
0.00986305
3.66153e-11
2.02375e-06
5.5027e-08
1.55814e-06
2.90381e-05
0.000904744
2.97809e-08
0.999986
2.84755e-11
0.0085613
4.28513e-05
1.23746e-05
2.97121e-05
6.31944e-05
0.00114893
1.15358e-05
0.0195726
2.18603e-15
2.53811e-07
1.71598e-06
8.73122e-13
0.000263149
4.57255e-07
0.000931337
0.979226
2.40821e-06
4.39442e-06
2.38243e-05
2.52965e-11
4.87869e-06
0.00234178
0.486823
1.73824e-08
1
0.00356845
0.00699589
1.68478e-08
8.59813e-06
3.43407e-05
0.315373
1.12792e-15
6.17813e-08
2.8866e-15
0.0085613
1.86493e-06
0.999258
0.245596
0.565115
2.14139e-06
3.43324e-11
7.65708e-08
0.0196641
2.37395e-07
2.54378e-07
5.88649e-07
0.00292566
4.02889e-06
4.04595e-06
5.69853e-08
5.30206e-05
0.997934
1.47328e-07
8.75313e-13
0.520063
1.84311e-05
0.00334774
0.000120615
0.00856132
4.88141e-06
1.49468e-11
1.10051e-05
1.15549e-06
4.4835e-06
1.80002e-07
2.36379e-07
4.76061e-08
5.73526e-12
0.997929
1
5.78252e-08
5.35655e-14
2.94033e-08
2.87919e-06
7.39024e-13
3.95178e-05
0.0196641
2.37915e-05
0.00043582
0.00856805
4.80057e-07
1.37095e-07
5.74979e-05
0.0220186
1.69207e-08
0.000931337
2.5843e-11
4.88202e-06
0.00064734
0.00856132
1.9607e-07
0.000301575
3.21674e-15
4.43265e-06
0.00157643
0.00460077
3.87148e-14
1.84499e-06
6.49818e-06
4.84597e-06
0.000629271
0.0196642
7.18344e-06
5.19919e-06
1.68895e-08
0.00398013
1.95584e-12
2.51522e-11
0.00751245
6.50684e-06
0.00151157
0.994177
2.0646e-06
0.000352439
5.83075e-12
2.13864e-15
1.81254e-06
1.79019e-07
2.74236e-07
1.45798e-07
0.000291646
-2.84822e-20
1.52112e-11
0.00192265
0.581272
0.0058619
0.00896675
6.99042e-08
0.130315
9.94645e-06
2.20784e-05
1.63742e-05
1.05597e-07
1.57576e-06
0.103307
3.29789e-05
8.21773e-12
0.00553714
5.92551e-07
1.5658e-07
0.00879087
7.94926e-06
5.54175e-14
0.00166257
0.000167559
7.85781e-06
0.000165477
2.0628e-15
5.58588e-07
7.39024e-13
0.999995
1.84929e-05
0.636496
4.87804e-07
0.000135516
1
2.12266e-06
4.57578e-06
0.00204384
0.000300403
9.47438e-06
4.44779e-06
6.91916e-06
0.0172907
1.77688e-15
2.80426e-05
1.77683e-08
3.23561e-06
0.000513957
0.997937
-4.66944e-17
6.34907e-07
1.55126e-06
1.76328e-08
4.2597e-12
0.000302929
1.68955e-08
0.677413
6.48394e-05
0.0176429
0.0196642
7.37835e-13
0.00570834
0.000635953
3.81741e-06
0.00571391
5.74473e-12
0
0.0126889
0.999989
6.47848e-06
9.91331e-09
0.00599859
1.60495e-05
5.38324e-14
3.66646e-07
7.94277e-06
2.57662e-08
1.83242e-05
7.16726e-06
1.40161e-05
0.00553714
8.67793e-13
0.315323
1.5282e-05
1.51181e-07
1.51085e-10
9.58416e-12
0.000112904
0.0010054
8.08793e-05
0.00874621
-9.15719e-27
0.00458661
0.997937
0.000125807
7.70901e-06
5.07937e-06
0.0781506
3.74123e-05
1.54405e-06
0.000169271
5.75351e-12
8.45779e-12
0.00821002
0.997937
2.06806e-08
0.078079
9.89182e-05
0.00582263
-4.38248e-16
-6.59584e-19
0.000158963
0.00250735
1
5.47251e-12
0.0177734
3.5618e-13
2.12119e-06
3.78374e-05
1.77185e-06
0.00461357
0.000599282
5.18258e-05
1.56977e-06
8.29946e-08
0.000931337
0.000206316
2.19135e-06
6.43393e-06
2.77769e-06
-2.66559e-15
0.380695
1.96684e-12
0.0131144
0.794358
2.6282e-07
0.00177653
6.59484e-08
0.00874724
0.00039641
3.30449e-06
5.30118e-05
0.00334774
0.00446607
1.00751e-06
0.284306
0.000630203
0.988498
0.0087452
0.000365081
0.13167
3.41625e-13
0.00602664
7.3792e-05
0.973296
2.16024e-08
2.32353e-06
6.68638e-06
0.000169271
0.503166
-9.75411e-15
0.00601341
-1.45353e-16
9.53824e-05
0.000327215
9.78566e-09
1.60839e-08
1.18561e-05
3.37553e-05
0.00103337
0.000482947
7.76085e-08
0.00910689
0.00596593
0.000115211
0.000185588
6.48192e-06
0.217283
2.70154e-07
1.59467e-06
9.24545e-06
2.03447e-08
1.83336e-13
4.48092e-05
3.40091e-05
-1.08625e-15
1.57905e-06
1.07568e-06
9.03072e-06
0.019426
0.000114343
0.0766954
1.70543e-05
0.000572304
0.00601849
0.00921215
0.000599337
4.27329e-05
-1.88797e-11
0.530935
6.2682e-06
0.0767046
0.000605424
1.60839e-08
1.17566e-11
5.19382e-12
8.27367e-08
1.66121e-06
0.00601293
3.75356e-05
5.71047e-06
0.000605078
3.84705e-06
0.999995
-5.15139e-15
-1.96247e-14
4.95911e-08
0.00598951
1.78155e-08
0.00146434
3.94274e-05
0.0155789
0.00115063
5.21102e-12
1.07568e-06
0.997937
0.997937
0.000403106
4.89829e-06
1.15069e-05
1.38959e-05
0.000730287
0.000591438
5.98427e-05
0.000259234
0.00060251
0.000163583
1.54076e-12
7.89186e-05
7.95391e-05
2.17731e-08
3.30061e-06
2.48932e-06
0.00911717
5.02064e-06
4.24102e-11
0.00460207
0.000165914
3.37601e-06
5.54421e-05
2.91829e-05
7.76085e-08
0.00945161
2.17504e-05
2.70415e-07
0.00924939
-1.42738e-14
0.000612383
5.21027e-05
5.09912e-13
0.822916
0.000482947
0.604577
5.06684e-06
0.00312881
1.42928e-07
1.61469e-08
0.997937
0.000572304
0.00414098
3.84664e-05
7.73599e-12
1.30641e-07
0.00085192
0.516701
0.0477701
2.14265e-05
-1.85629e-14
1.59863e-08
0.000443566
1.64301e-08
8.15092e-05
0.000111863
2.52891e-15
6.67702e-12
4.70148e-06
1.31146e-07
0.000612591
3.32355e-11
1.69915e-08
0.0432892
2.39631e-05
1.94409e-06
0.000132599
2.09924e-15
0.000160722
0.00535536
0.00206852
2.98906e-05
0.000131456
0.000163724
0.0434201
0.000335304
0.581408
0.581878
0.00336169
0.0324718
5.0013e-06
1.03512e-09
5.80003e-05
0.000165821
7.64603e-07
0.0110437
0.0005272
1.63405e-10
1.63611e-11
0.00105274
3.21824e-08
0.000624815
1.70741e-16
-2.09143e-14
0.000572304
1.77016e-05
0.000443372
0.000973511
8.91926e-05
0.000110513
5.44225e-12
2.78577e-12
0.997579
5.04135e-06
0.000385705
0.636801
0.997542
0.0224817
1.94408e-06
-3.65746e-16
4.70148e-06
1.43693e-05
5.83078e-12
0.970419
1.37646e-08
1.68498e-12
0.000190192
0.000538443
0.000612585
3.25606e-06
0.0329445
7.65898e-06
0.124062
1.60051e-08
1.66903e-08
0.805367
-1.79165e-15
4.70148e-06
0.630845
0.641577
3.29795e-08
-2.35726e-15
1.87092e-06
3.35435e-06
2.20009e-05
0.00345602
0.205769
5.61595e-05
0.000517502
1.30978e-07
0.445315
0.000106559
0.000451347
0.000316993
0.0145532
8.91108e-05
0.00031891
5.59971e-08
1.23581e-05
0.801297
0.000111821
3.10252e-05
0.000111645
-5.84158e-15
1.15923e-05
6.02352e-05
2.6903e-07
9.91435e-09
0.000491155
1
0.000161603
1.23319e-05
0.0110364
2.13054e-07
0.000409717
1.13848e-07
3.03628e-05
2.27938e-08
7.73257e-06
0.000200799
1
-1.24968e-14
0.000554993
2.36926e-06
0.000581224
0.0332726
0.000103237
7.58173e-05
0.261641
0.000107351
0.000108751
1.21684e-10
0.997504
0.99648
3.48429e-08
0.000197916
1.8978e-06
0.14808
9.21603e-05
0.0328838
0.0198001
0.0139177
-1.29404e-14
5.79546e-11
2.50639e-05
1.87345e-08
1.0459e-08
0.000553201
0.000554071
0.000127325
2.22048e-05
2.49025e-08
1.37991e-05
0.000114439
0.000551613
1.33202e-08
0.975992
0.997541
8.91108e-05
1.86802e-06
1.55015e-08
1.20062e-05
0.00818885
1.5988e-08
1.26656e-05
0.000554187
1.65306e-05
0.000263944
8.51383e-07
1.06247e-11
0.962681
1
9.20026e-09
0.000134514
3.71001e-06
0.995986
0.999999
0.000111531
0.0467341
0.00211935
2.06312e-06
2.24861e-05
5.80581e-08
7.82319e-06
2.54484e-12
0.172272
0.00216972
3.72669e-15
0.000268177
8.5352e-05
8.9912e-06
0.00058667
0.0332864
0.00698649
1.40405e-07
0.000201537
0.722233
0.000523694
-1.93573e-14
2.96763e-07
0.000102437
1.59898e-08
0.000315099
0.000508198
1.87092e-06
6.06012e-05
1
8.45154e-08
0.0110364
0.000558953
0.000103213
1.68588e-07
9.96303e-06
7.81091e-12
3.50268e-07
0.000345738
1
0.000620459
9.28684e-05
0
1.59358e-07
3.36976e-12
2.24861e-05
0.000537628
1.30971e-13
2.53816e-15
0.206685
1.45199e-05
6.21025e-10
2.6533e-05
0.141321
0.000185831
1.3286e-08
0.241082
0.000557728
1.92864e-06
6.35761e-06
1.87092e-06
3.06462e-07
7.44777e-10
1.76904e-05
2.5675e-09
0.00213553
2.79017e-08
0.000244297
0.000598136
1.75436e-07
1.98396e-08
0.0496673
1.35023e-10
0.0334755
9.09709e-05
2.53668e-16
-9.33385e-17
1
2.5202e-05
6.53924e-06
0.914903
9.04936e-09
3.91044e-06
0.0236679
8.40686e-08
1.28633e-05
0.000536443
7.33609e-06
0.00782186
-8.31437e-16
5.23116e-06
0.000507927
-1.85992e-14
0.883445
0.796887
0.88392
1
6.05638e-06
0.974998
1.33678e-05
8.59939e-05
1.56024e-07
1.27893e-06
0.000153943
9.05139e-09
0.422194
3.71796e-07
7.61593e-08
4.4826e-08
8.96849e-05
0.000530189
1
-3.32747e-15
9.95722e-08
0.00423005
0.000192322
0.309043
0.26981
0.32226
8.74432e-08
0.808153
1
1
0.259348
0.000785552
1
1.39222e-06
0.000449453
2.68822e-07
0.118103
5.23116e-06
0.0584473
3.70954e-11
0.609781
0.0338109
1.04783e-05
0.838833
5.49947e-06
1.09029e-05
1
-8.98815e-15
0.0229089
2.35091e-08
0.121483
5.85538e-07
2.18872e-07
1.57202e-05
0.000449453
5.04166e-05
1.33202e-08
7.70362e-05
2.08243e-08
0.356804
2.90243e-05
0.997884
5.94796e-06
5.99067e-10
3.89077e-07
0.0334383
0.000120245
0.722409
1
0.0156274
0.000120532
3.48592e-07
9.0532e-09
1.42278e-05
6.22095e-06
0.455612
1.92864e-06
2.57929e-07
-1.65106e-14
2.94155e-10
0.000146489
0.562741
0.00365449
3.81981e-13
4.13023e-06
6.79113e-05
0.000192657
9.0504e-09
0.414449
1.55409e-07
0.000548324
0.497358
3.47908e-05
0.000617385
-1.50271e-14
1.60166e-05
9.65245e-09
9.07853e-05
0.013283
3.34677e-05
9.04099e-08
0.000244176
0.626676
3.9336e-07
1.35342e-05
1.74781e-05
9.43291e-08
9.22932e-07
2.37167e-08
1.49759e-13
9.14895e-08
8.72508e-05
6.57244e-08
6.37974e-05
1
9.37095e-05
1
9.17893e-05
0.783439
8.82249e-05
1
0.00171781
0.00379105
-2.01415e-14
0.000166445
1
2.66447e-07
9.33674e-06
1
0.974169
0.722313
0.969594
9.06572e-09
6.85035e-08
1.87135e-06
1
6.93097e-10
2.72713e-09
0.795707
0.000214598
0.886024
2.3064e-08
4.80681e-08
7.69819e-05
4.76017e-07
0.000400737
0.886022
2.19442e-13
0.0126911
9.06187e-09
5.03325e-08
1.87146e-12
0.00157869
1
0.357684
0.000135635
0.999997
0.32408
7.07869e-05
0.320471
9.07439e-09
9.27836e-05
0.2556
0.00068897
0.00476008
0.125763
6.78747e-07
9.76635e-11
0.8838
0.0654285
0.0382468
0.00215701
0.000148592
1.5487e-07
0.000272135
9.22275e-05
5.34897e-08
0.000122413
0.249054
0.71516
0.714924
0.0251874
0.00012127
0.00233324
3.61613e-05
0.00153698
5.03325e-08
1
0.0018216
5.54686e-08
9.59381e-09
0.00163441
0.8838
0.507481
1
0.0173117
0.00149396
0.00102304
0.94021
1.79881e-11
1.29756e-07
1.73415e-07
3.22447e-09
0.00124836
0.415857
0.498741
0.00105772
0.000211391
0.62718
9.39903e-05
0.00404334
7.42246e-07
1.59345e-05
1
0.00384392
0.00390144
0.00569429
0.277767
2.77978e-13
9.28648e-05
6.9746e-07
3.08265e-05
0.000813841
9.29799e-11
0.00219677
0.000140622
3.3687e-06
0.794102
0.000841093
9.59096e-10
0.000121055
0.690509
1.96172e-07
0.0143678
9.18798e-05
0.866868
0.765973
1
4.96945e-08
2.14932e-06
3.00368e-07
3.80474e-06
0.00486246
7.67045e-06
1
0.883605
0
1.98336e-07
0.000103015
9.77969e-05
0.00220708
1.89045e-06
7.89991e-07
0.00149692
0.00116221
-1.01123e-14
-4.45957e-15
1.86669e-13
0.883183
0.00646388
1.95251e-12
1.49695e-07
7.23433e-06
9.60729e-05
0.000104539
4.33391e-05
0.000468959
1
0.000446955
0.012357
0.8838
2.03666e-07
0.00154006
0.936964
0.000359484
2.71193e-06
4.51571e-06
0.0022287
0.00206321
0.00577386
0.00644631
0.000317828
0.000231088
0.00188042
2.41632e-11
0.00220245
0.00165424
0.000587655
6.62498e-08
1
2.00622e-07
0.000819
6.33408e-07
2.59035e-13
0.000121635
0.000841093
0.810308
0.883109
0.000352408
1
0.00665373
0.000841834
6.21665e-08
3.55759e-06
4.83094e-06
4.04779e-05
0.00150172
9.62797e-07
0.000916751
0.00220608
0.000111057
0.00204817
5.25286e-10
1
1
0.0006919
0.000765392
1.38937e-08
0.889816
4.76971e-06
0.00666343
0.00644514
0.000951849
0.000133716
0.00593401
0.000783112
0.00583792
0.00621921
3.67813e-05
0.00062831
0.002046
0.000149736
2.93046e-13
3.70931e-12
9.41203e-05
2.06468e-10
0.00665934
0.00604025
0.000692887
0.889774
0.00202797
0.000934945
0.000188187
1
1
0.000189871
0.00300326
7.47441e-07
0.00148218
0.00148897
0.000969365
0.000268076
0.00534353
9.63692e-06
0.000124245
1.68645e-07
0.000838247
0.000746108
4.15496e-11
0.000276722
4.07061e-14
0.000171788
0.00657808
7.51899e-09
0.0066565
0.00665529
0.00665373
0.000766869
1.17902e-13
0.000941819
2.18654e-09
0.000621045
0.000575431
0.00604705
0.00607207
0.000695192
0.00802208
0.00344375
0.00801695
0.000928727
0.883629
0.000969256
0.00523917
0.000749393
0.000928504
2.70805e-08
5.79943e-10
0.00145921
0.00146725
0.00145065
0.00665889
1.98697e-09
0.00665934
0.00503255
1.96814e-07
0.000933815
2.64855e-06
0.000188054
5.74192e-09
0.00618191
0.00623475
0.00122698
0.000579053
1.32656e-06
0.000200419
0.000813321
2.9206e-05
0.00064854
1.43343e-09
4.17756e-11
0.000668838
2.16153e-15
3.04539e-06
2.94698e-08
4.29664e-09
7.38085e-09
6.52011e-06
1
1
7.17167e-26
1
7.1751e-26
1
0.00461237
0.00451513
0.00665772
0.0032517
0.00333322
0.00802208
0.00542571
0.00547829
0.00756738
0.00757087
2.05171e-07
1.51569e-07
0.00147488
1.13357e-07
8.20106e-08
5.26478e-06
0.000800088
1.25322e-12
0.00634564
0.00634564
0.00600471
0.00453625
0.00549264
0.00527138
0.00144171
7.93835e-09
7.12585e-10
0.00067368
0.000969379
0.0005067
0.88977
0.725859
1
0.567813
0.999967
0.689973
0.88914
0.000148932
0.00531883
0.887679
0.689975
0.999999
-3.51919e-12
0.995681
0.605777
0.689975
0.999967
0.000148592
1
0.92995
2.1334e-06
1
0.967483
2.57833e-06
1
0.517883
0.516816
1
1
1
1
1
1
0.21877
0.999967
1
0.970425
0.970414
0.970397
0.99999
2.3249e-06
4.13738e-05
0.804053
0.999996
0.999998
1
1
1
0.358004
3.38509e-14
0.969566
1
0.999997
0.865443
1
1
1
1
1
1
1
0.999994
0.94396
2.27209e-06
0.970425
4.33554e-14
1
0.970425
1
0.970425
1
0.834839
2.12139e-06
0.911584
0.999905
0.463175
0.970414
1
0.943097
1
0.839503
1.82155e-06
1
2.06215e-06
0.51995
0.820151
4.90646e-06
0.942865
0.999995
0.832802
0.519132
2.0596e-06
4.88386e-06
1
0.999999
1
2.06147e-06
3.97543e-07
1
7.57805e-06
3.29735e-05
1
0.000107848
7.57805e-06
0.358747
2.16438e-05
0.371237
0.614423
0.966068
1
9.57235e-05
1
1
4.94269e-06
)
;

boundaryField
{
    patch0
    {
        type            zeroGradient;
    }
}


// ************************************************************************* //
