/*--------------------------------*- C++ -*----------------------------------*\
  =========                 |
  \\      /  F ield         | OpenFOAM: The Open Source CFD Toolbox
   \\    /   O peration     | Website:  https://openfoam.org
    \\  /    A nd           | Version:  8
     \\/     M anipulation  |
\*---------------------------------------------------------------------------*/
FoamFile
{
    version     2.0;
    format      ascii;
    class       surfaceScalarField;
    location    "0.7";
    object      alphaPhi0.water;
}
// * * * * * * * * * * * * * * * * * * * * * * * * * * * * * * * * * * * * * //

dimensions      [0 3 -1 0 0 0 0];

internalField   nonuniform List<scalar> 
2805
(
-1.95547e-11
-1.75653e-05
7.44538e-06
4.40747e-12
-2.34253e-11
-1.44149e-05
2.9511e-06
8.3969e-06
-1.81593e-06
-6.77576e-16
-1.65589e-11
2.07433e-11
-1.58075e-06
9.02501e-06
-1.89072e-06
-4.55521e-16
-1.19096e-05
6.50397e-06
-8.37629e-07
-5.94005e-08
-2.63817e-12
7.50978e-08
-2.97704e-06
4.32447e-06
-1.48702e-07
-8.13162e-07
2.83957e-06
-0.000109177
0.000296998
-4.10042e-06
5.52476e-06
3.53666e-07
1.09173e-07
-5.41579e-07
3.72923e-07
-8.20497e-08
5.71998e-05
-6.45534e-05
-1.29776e-06
-1.36038e-07
-9.03312e-05
6.25597e-05
-2.27591e-06
6.49359e-06
0.000330793
-0.000508465
0.000177681
0
0
-1.27542e-08
-3.94635e-05
2.14622e-05
2.38245e-05
-1.48982e-06
-5.45669e-08
0
1.40103e-10
-5.28191e-06
5.63161e-07
1.35944e-06
-1.10356e-05
-6.34763e-08
6.25759e-12
-6.67459e-12
6.55089e-12
-9.93562e-11
1.02606e-10
-5.25867e-12
-5.8042e-09
6.94445e-07
-2.59851e-08
-1.54636e-05
-2.09666e-06
-3.71163e-11
1.26258e-10
-5.60741e-05
2.22196e-07
-4.49499e-06
7.94749e-07
7.1485e-05
-9.06177e-14
5.56679e-12
-1.41933e-06
7.70012e-06
-3.27892e-11
-5.06776e-12
-2.52156e-10
0
-1.48567e-08
-8.11991e-11
-6.10137e-06
6.59618e-09
-6.63228e-09
-0.000132827
0.000523036
5.69456e-07
8.65697e-05
-5.83544e-05
0
4.44591e-07
-4.46296e-07
-3.5054e-10
6.88673e-09
-6.64083e-09
2.68965e-05
-9.51826e-11
1.37973e-06
9.21853e-10
1.24853e-11
-4.20475e-08
-0.000188168
-0.000221547
0.000409715
8.02469e-05
0.000150157
-0.000230403
-5.73552e-06
-5.91022e-05
5.80666e-05
-0.000146151
-6.51459e-08
1.47685e-08
3.01565e-06
-1.40984e-05
-3.51444e-07
-2.63629e-08
1.46231e-06
-3.09154e-12
8.73638e-06
7.91352e-11
2.88387e-12
6.50806e-11
-2.4709e-10
8.09828e-08
-5.42239e-07
-1.4649e-05
5.68355e-05
3.06572e-07
1.38989e-08
0.000611214
-0.00064704
1.25724e-08
-3.92689e-10
3.19753e-08
-1.38225e-07
2.65117e-06
-8.46302e-15
1.26581e-11
-5.32744e-08
-5.20607e-08
3.12869e-07
1.5126e-05
-9.22219e-06
-2.96665e-10
0.000221442
-0.00023092
4.26263e-05
-1.16886e-05
-1.64761e-06
1.8924e-07
-2.04217e-08
-1.56843e-10
2.5317e-08
5.78992e-07
1.9513e-10
-2.22797e-10
1.68669e-08
1.0548e-07
-1.297e-07
4.7061e-16
-8.76105e-15
-5.16867e-17
2.04044e-10
-3.22138e-08
-1.41099e-07
0.000909536
2.92119e-13
-3.17719e-13
-2.46207e-14
-1.95944e-06
-8.85326e-06
-1.18293e-06
-1.7067e-08
9.47282e-07
-0.000189539
-0.000153236
-9.82123e-05
8.90318e-06
7.23129e-07
-4.19606e-12
8.00633e-08
-4.31107e-08
-0.000107921
1.77461e-05
5.34657e-05
2.73891e-07
-1.18977e-07
-1.41681e-05
1.25477e-05
-3.44422e-07
2.14689e-06
-2.80123e-06
3.02467e-07
3.40072e-05
-1.45532e-05
1.27782e-07
-5.995e-07
-5.79576e-18
8.73032e-16
4.96468e-14
2.21448e-13
-1.99156e-06
4.52383e-07
6.8139e-09
1.4906e-09
-1.27874e-05
3.20506e-06
0
3.14552e-05
-5.93223e-06
4.49397e-07
-4.83258e-07
-1.35492e-05
9.2055e-06
-4.74073e-06
-1.33673e-16
1.27265e-17
1.11952e-16
-3.56489e-06
8.57191e-08
2.61716e-06
9.38391e-06
1.94208e-07
8.06768e-08
5.85571e-09
-3.567e-06
-1.37056e-16
2.04473e-16
1.02333e-07
-1.02755e-07
-2.65257e-10
1.52749e-06
-7.3331e-07
-7.54938e-07
-1.83837e-13
-3.22137e-08
-0.000248989
0.000202213
-5.3958e-06
-3.74001e-07
2.07744e-07
5.28016e-07
-1.52013e-07
-3.231e-08
-1.93662e-13
6.45838e-05
-0.000153646
-0.000515557
0.000522118
-6.56097e-06
0.000327838
-7.64074e-05
-6.65845e-08
1.19524e-09
8.13969e-06
6.17368e-06
-1.44705e-05
7.14563e-07
-1.76658e-07
2.22677e-17
-4.26941e-17
-1.71649e-06
-0.000118143
0.000403294
-0.000285151
2.44641e-17
-1.61751e-16
-5.84115e-06
1.57553e-06
2.03555e-05
-2.19149e-05
3.84462e-07
-1.99344e-05
7.72546e-06
-1.27202e-05
1.97803e-08
-2.03204e-08
9.07799e-06
-1.0023e-06
-2.60195e-10
3.09016e-12
8.79197e-09
0.000108492
-2.00588e-06
-8.38323e-05
1.07738e-06
-2.59131e-05
1.91485e-05
-0.000281105
0.000162962
1.68445e-05
3.73009e-06
1.50672e-06
-1.33374e-06
5.10883e-07
7.45066e-08
-5.60675e-07
2.51735e-07
-0.000515557
0
2.11832e-07
-2.33618e-05
1.5962e-05
-2.85761e-06
-7.93052e-06
1.4016e-05
0.000483688
3.84299e-05
-7.36074e-08
-3.18948e-16
2.88773e-16
-5.95123e-07
5.60117e-06
-8.19899e-07
-1.18115e-06
4.99611e-07
-4.58822e-07
-5.62499e-06
-0.000504883
-1.06734e-05
2.40536e-07
1.75168e-07
-2.83638e-06
-7.25653e-06
1.30362e-06
-1.93127e-06
0.000181559
0.000302129
-1.07272e-17
-1.93635e-13
-4.14683e-06
-1.53009e-11
2.22023e-07
-6.61697e-06
2.62345e-06
-1.51517e-16
-4.18283e-17
6.29098e-10
-9.02664e-16
1.16133e-05
-1.75182e-05
0
-1.1072e-07
-7.78353e-06
8.62849e-05
1.96186e-06
5.73272e-06
-2.21643e-06
6.23236e-06
0
5.09499e-06
-2.68525e-06
-1.67496e-08
-1.43715e-07
-2.04044e-10
-1.40056e-09
1.59363e-09
-1.07867e-07
6.70174e-06
0.000101728
-0.000323275
2.46383e-12
-3.01884e-10
3.42979e-07
-1.31675e-07
5.68668e-08
0
-7.62024e-08
-1.74414e-16
-3.43589e-07
8.09955e-07
1.34637e-05
0
-1.9462e-06
3.60998e-16
-1.65432e-15
-1.26563e-06
0
-2.86506e-07
-0.000504883
6.16589e-09
4.63169e-09
-4.28449e-08
-7.56463e-06
1.20903e-05
6.50721e-06
-1.44263e-05
8.30361e-06
-5.96877e-08
-0.00015142
1.51169e-06
-9.94014e-06
7.65316e-06
-2.13542e-05
1.04583e-07
-7.6069e-06
4.03145e-06
1.77961e-07
6.69175e-08
1.77377e-05
2.03803e-05
-0.00051033
5.44662e-06
-2.16841e-06
1.32423e-05
-1.97936e-05
7.25459e-06
-9.91365e-09
3.2817e-07
2.57281e-10
6.5851e-17
2.61321e-07
4.643e-07
-9.46375e-06
-1.13465e-05
-1.41339e-17
-9.52163e-19
4.4866e-06
5.11468e-08
-1.17775e-06
-1.45939e-06
2.62481e-06
-1.39388e-05
-3.40122e-09
6.93088e-11
-3.26849e-15
2.63694e-15
-3.17216e-15
-1.22491e-14
1.91963e-14
6.74655e-08
-7.65005e-08
1.37488e-06
-1.94958e-06
-1.28568e-06
2.18836e-05
4.75837e-07
-4.14394e-07
0
1.13356e-05
2.20397e-08
-8.0921e-08
9.10878e-06
-1.66349e-05
-3.53225e-06
-2.44918e-05
1.34133e-05
2.45402e-07
-4.75372e-06
-0.00051033
-2.34196e-08
3.05064e-09
7.60862e-10
1.0356e-07
-1.85607e-08
9.8739e-07
2.09714e-07
-1.38102e-07
2.00725e-06
8.17445e-08
4.78936e-06
1.30701e-05
-2.66735e-05
3.7807e-16
-3.38074e-17
-2.92257e-15
-3.45651e-10
-0.000347534
-0.000162796
4.36176e-10
6.44987e-08
-1.28471e-05
-7.96971e-17
-1.05791e-16
1.66798e-07
-4.8248e-06
-4.27245e-06
3.28816e-06
-4.96534e-10
7.44635e-10
6.30278e-10
-1.0054e-05
-1.11722e-05
5.61948e-07
-1.70958e-07
2.69424e-08
5.95881e-10
5.80517e-17
1.23744e-10
6.19682e-11
-2.22797e-10
-4.09671e-17
0.000294532
0.000228701
-1.17115e-17
-1.18381e-18
6.71504e-07
0.000249693
6.43029e-08
-3.50396e-09
-6.75266e-07
2.15547e-07
6.3369e-12
1.60101e-11
-2.27899e-11
4.51655e-07
1.85759e-08
-2.25758e-13
-9.80486e-14
-9.31165e-06
4.08216e-10
2.8709e-09
1.89982e-06
4.49859e-06
-9.73122e-05
-0.000347534
-2.62046e-09
6.83124e-08
-7.07863e-08
-6.50777e-05
-7.8696e-05
3.71837e-14
-4.17477e-14
-0.000403294
5.57597e-05
-1.95751e-05
8.57946e-06
-2.25201e-10
3.7687e-08
-3.9668e-07
3.93604e-13
-2.22576e-10
3.56417e-10
-1.6917e-10
5.09223e-06
-9.57303e-08
-2.8179e-05
0
-5.24302e-08
-1.91932e-07
2.43126e-07
2.5128e-06
1.7405e-05
-1.21553e-18
-3.05689e-06
-1.55532e-05
-1.83006e-08
-3.67707e-11
1.24087e-08
-2.29188e-07
1.06046e-05
-1.9313e-05
5.88915e-12
2.04794e-11
-2.65766e-11
1.00939e-05
0.000284646
-2.77585e-08
6.8328e-09
7.49424e-10
-6.90737e-07
4.76281e-06
3.58867e-06
-1.21513e-05
1.99497e-09
9.47981e-08
7.90785e-08
7.14094e-11
-7.88398e-08
-4.58714e-15
0.000414897
-3.38033e-07
-8.649e-06
-4.3421e-08
2.58382e-08
-1.24615e-10
1.616e-08
1.35253e-08
3.13483e-07
-1.45689e-08
1.06419e-07
6.61314e-09
-1.35559e-06
-2.67316e-14
-6.61567e-14
1.15309e-13
6.88633e-13
2.14959e-11
-3.09601e-17
-1.01956e-07
8.98282e-08
1.61336e-07
5.22266e-08
1.11607e-08
5.55122e-07
-1.09591e-07
-1.20546e-05
-1.89648e-19
-7.68308e-19
7.69865e-11
5.73356e-11
6.13808e-07
4.71976e-08
-1.31463e-07
5.83136e-08
-2.03416e-09
-1.63647e-06
-2.64664e-14
-1.30187e-07
2.01406e-10
1.93243e-11
2.44075e-06
-8.11113e-09
-7.51204e-08
0
3.76233e-09
-2.99506e-08
-3.69141e-09
1.58087e-08
2.55718e-06
0
1.23561e-06
-1.29771e-08
-1.39297e-05
2.05096e-06
-5.10522e-10
-9.50003e-08
2.01542e-05
-7.69758e-19
-1.6949e-15
-0.000147542
0.000314244
-0.000166702
-5.39702e-06
6.33331e-06
1.04724e-08
-2.29067e-09
-4.68952e-07
2.79839e-07
1.85656e-10
-3.27981e-10
1.66022e-06
-1.11828e-05
-3.49303e-10
-2.52047e-08
3.87444e-08
5.55889e-07
2.22084e-07
4.16336e-10
1.82663e-08
-2.64206e-09
2.90269e-08
9.18733e-09
-2.88181e-08
-1.92408e-08
-4.63908e-09
-1.51493e-08
1.58473e-11
-1.29494e-08
-1.57371e-07
1.32076e-05
-3.65338e-07
-0.000284068
0.000248311
-1.92553e-07
-2.12858e-07
6.53967e-11
3.81597e-11
-3.19715e-09
9.4368e-11
2.92561e-10
-3.24465e-18
-2.36022e-11
4.6751e-08
2.83904e-08
-2.46271e-08
7.92908e-09
-4.11602e-17
3.23043e-09
9.13957e-06
-5.47721e-06
2.46717e-07
3.03519e-08
1.95219e-11
-2.96628e-08
3.63836e-08
4.59139e-09
-9.34846e-08
2.1976e-06
-6.24849e-07
1.6054e-10
-3.64084e-09
-3.20506e-14
6.08541e-10
-0.000227343
-5.3762e-05
-7.6867e-20
-1.86243e-18
4.27095e-06
7.70929e-06
7.15793e-07
0.000181559
-9.21202e-07
1.62042e-06
-2.57618e-13
-1.23268e-13
4.22719e-13
0
1.11089e-05
4.19052e-07
1.19358e-05
3.02618e-08
-1.33053e-07
-4.06863e-08
-5.36259e-06
-1.4011e-06
7.09234e-08
-9.91575e-07
4.22261e-09
5.68128e-09
-4.85635e-14
-1.47923e-13
-4.11288e-06
-1.36193e-07
2.3667e-07
-6.24424e-07
1.09661e-06
4.20018e-16
-1.16249e-09
1.40706e-08
3.74245e-09
-3.54532e-13
7.86015e-05
1.44268e-07
-2.42377e-06
-3.49142e-10
-1.08566e-13
-2.21037e-15
-9.65832e-15
-8.84297e-11
1.47458e-10
5.05493e-10
2.83551e-11
2.69431e-08
5.16744e-13
1.84203e-08
-8.91869e-14
6.45646e-09
2.84545e-08
8.09258e-09
-3.93704e-08
-2.44846e-09
2.73782e-08
-1.19074e-09
0.000135109
0.000213132
-0.000378738
-6.48103e-06
8.44815e-08
2.95434e-08
1.17716e-06
-2.6367e-08
-3.36595e-09
7.14323e-06
-1.88789e-06
-2.18598e-10
2.09799e-09
5.67591e-06
-6.98339e-09
-8.57557e-19
-7.98738e-12
-7.39266e-09
6.99564e-09
-3.30565e-07
1.16443e-08
9.70391e-08
-8.79184e-09
9.90423e-08
7.50806e-06
2.84754e-09
-3.18871e-13
-4.33107e-09
1.25164e-07
-1.7687e-07
-5.9752e-08
7.81261e-08
5.19008e-10
-3.19542e-10
-1.38143e-15
-1.02292e-14
1.16206e-10
1.37757e-10
-0.000106811
0.000569279
5.41647e-08
7.95032e-06
-1.41241e-08
9.50364e-09
-1.12026e-09
1.30168e-09
7.52547e-09
2.0661e-09
-4.41766e-06
-1.49563e-06
1.54088e-05
-4.24031e-06
1.97269e-08
7.78984e-09
8.38943e-11
-1.49646e-16
-3.77653e-13
1.40365e-08
-5.43155e-11
-8.99119e-18
-1.4653e-10
1.23885e-11
-6.9936e-08
2.4246e-08
-3.49633e-10
1.09851e-10
8.3741e-10
-2.31088e-09
-1.15797e-07
1.01995e-07
3.61292e-07
2.51489e-10
2.57437e-10
1.30351e-05
2.77051e-08
-3.27644e-10
-5.64193e-08
2.65305e-08
1.79493e-09
4.66331e-09
-7.02433e-14
0.000422435
1.79333e-09
2.67872e-08
-8.36102e-17
-2.31276e-13
-1.16218e-09
-8.79181e-14
-2.31552e-13
1.13437e-10
-6.88866e-09
2.5628e-07
2.91238e-09
-5.27637e-08
0
-2.68617e-13
-1.03269e-07
2.83777e-08
1.10763e-09
8.33751e-08
2.4511e-06
2.8272e-09
-5.37599e-10
1.07638e-08
-8.81552e-08
1.44005e-05
-1.18042e-08
2.60099e-08
2.47428e-11
-5.35207e-10
-1.59506e-13
1.44093e-19
-5.88479e-18
-1.77453e-13
6.7744e-11
2.191e-08
-1.36717e-09
1.25609e-09
2.80114e-10
1.37625e-09
-3.05715e-07
-1.11493e-05
2.39706e-10
2.09799e-06
2.9048e-07
-1.2391e-07
-3.51473e-15
-4.51949e-14
-2.19298e-13
1.09654e-09
6.13544e-06
5.55972e-17
-4.03142e-17
1.69132e-06
5.51388e-05
1.02455e-05
4.07327e-07
-2.67231e-06
2.55659e-07
8.19213e-10
-1.94888e-08
-5.56983e-08
3.44615e-08
9.79564e-06
-2.79785e-06
8.85067e-07
7.66067e-07
2.43158e-10
-1.59801e-11
-7.72056e-07
2.92971e-10
1.38374e-08
1.62232e-05
-3.13842e-06
3.66921e-10
9.34846e-12
-5.58948e-08
4.09242e-09
0.000395829
0.000546237
-2.7741e-18
-1.00446e-13
-1.97843e-13
1.92643e-09
-1.32242e-10
-8.84249e-11
-3.3393e-15
-6.65378e-11
-2.44213e-11
2.44362e-10
-1.59765e-10
-3.7772e-09
-1.81212e-09
1.59814e-09
-2.70468e-07
5.25485e-07
-2.312e-10
2.48081e-08
2.15702e-09
9.47154e-09
-1.70295e-10
1.51007e-05
3.65277e-06
0.000112391
0.00038602
-7.71276e-06
6.42972e-06
-7.09051e-15
5.41848e-06
1.78139e-06
5.15684e-06
8.53838e-10
2.72084e-08
-2.62708e-09
-2.36267e-15
1.68992e-16
-9.49158e-17
4.18539e-09
-2.68064e-13
5.65071e-08
4.18207e-09
-4.47497e-11
1.11836e-10
1.06825e-18
-1.93235e-18
-2.10425e-11
2.76822e-10
8.20535e-06
-6.43287e-07
7.84965e-06
-2.95045e-14
-2.15732e-13
5.12257e-06
-1.01861e-06
1.05082e-10
2.10731e-09
1.0623e-09
-9.22784e-10
-1.31815e-08
4.44696e-10
8.77107e-05
5.90323e-05
0.000325434
1.92925e-08
-1.83994e-08
5.17691e-06
-5.88639e-06
-4.47818e-15
-7.42985e-14
-7.3144e-09
1.26643e-05
-2.36889e-06
1.83483e-07
0.000214934
5.22602e-05
0.00108839
0.00119142
-1.67265e-13
1.99502e-10
-1.24752e-14
-7.82722e-17
2.02731e-10
-1.31667e-08
8.5558e-09
-3.88038e-07
-2.40513e-06
-9.54576e-09
0
2.60644e-08
-4.72039e-11
2.61165e-10
1.85463e-08
8.99595e-09
1.71996e-07
-2.56076e-06
9.38059e-19
-8.29121e-18
-2.60988e-09
0
0
3.94987e-06
9.57305e-06
-4.22667e-07
7.87718e-06
-3.99679e-15
-8.1495e-14
1.11446e-09
-4.97903e-10
3.84384e-10
3.07222e-10
2.12613e-07
3.00367e-09
2.53638e-06
5.45557e-05
-3.10341e-10
5.39958e-10
-9.01766e-14
-1.03098e-13
-7.32999e-15
-5.94005e-08
7.24964e-09
2.61876e-07
-7.77138e-08
1.36997e-06
-1.8568e-17
1.22566e-06
2.42677e-06
1.0574e-09
1.21484e-05
1.51103e-05
4.12007e-08
7.77772e-09
-1.05694e-08
1.56298e-09
3.46785e-11
2.93422e-15
2.36278e-09
2.13206e-08
3.1414e-07
1.39189e-09
-4.65398e-07
0
2.93503e-09
-2.08765e-13
1.72061e-08
-7.84543e-11
9.31161e-10
4.15337e-09
2.30325e-09
2.25309e-08
-1.1429e-08
4.97795e-10
5.65738e-09
3.03888e-07
-3.23793e-07
1.03175e-08
-5.96264e-08
-6.14196e-09
4.52552e-09
9.10279e-06
-9.5416e-07
3.3491e-11
1.96092e-09
5.82047e-07
-8.6979e-11
3.23455e-10
0
1.10414e-08
-4.72069e-18
2.52616e-06
2.02288e-05
-4.8662e-08
3.12486e-06
0.00018541
1.90667e-23
2.5288e-15
-7.92258e-14
3.66517e-10
-1.2859e-11
0
5.72251e-07
7.4262e-09
1.83442e-07
-1.08473e-10
1.54841e-08
3.83623e-10
7.98989e-10
1.97649e-18
-2.43545e-15
7.13501e-05
0.00035711
-1.61284e-08
-2.99105e-15
-2.12381e-08
2.61937e-08
-2.93602e-08
0.000267107
0.00092483
1.46473e-05
-1.39714e-06
9.52527e-12
-9.68165e-12
-1.391e-08
5.82219e-10
-1.43609e-10
1.33106e-10
1.67048e-08
7.13805e-08
-5.48854e-09
5.84609e-11
1.17332e-10
0.000360956
-0.000142607
-0.000218339
-1.93425e-14
-1.26074e-13
5.55153e-06
-7.11496e-08
-2.2213e-08
4.95963e-08
1.73324e-07
1.90453e-08
1.87233e-06
1.78548e-07
-9.13473e-08
1.20565e-05
1.89797e-18
-4.40709e-18
2.73645e-09
-8.65071e-12
9.3129e-09
7.10697e-16
-6.62897e-15
3.43505e-08
-4.46388e-09
-2.38987e-09
2.42391e-09
8.92094e-07
0.00017345
0.00106469
1.23018e-09
-8.94024e-10
1.85281e-09
9.7607e-08
-9.64806e-14
1.90739e-08
2.09774e-09
1.49286e-05
0.00027788
3.93303e-11
0.000106519
0.000254437
5.37267e-06
-1.78647e-08
-1.81126e-11
5.17994e-11
-1.01194e-09
4.29936e-09
-1.0471e-08
0.000107879
-0.000181237
3.96737e-20
8.1503e-09
-6.58519e-09
-4.6853e-18
2.05052e-06
-1.46881e-06
5.10403e-09
-0.000249797
0.000222141
-0.000317184
0.000468172
2.62433e-09
2.09382e-07
1.21437e-14
-6.07299e-14
4.52747e-10
8.07927e-06
-1.0249e-10
1.88063e-11
2.28895e-10
7.79232e-10
4.89267e-09
1.80897e-06
2.71326e-08
1.3075e-08
-1.74633e-09
1.68913e-09
4.75266e-09
0.0010983
2.11403e-10
4.77011e-10
-3.20255e-16
-0.000606288
4.51365e-05
0.00046193
-6.89615e-08
-1.87914e-06
-1.80563e-07
3.75845e-07
1.19055e-07
6.53095e-07
1.88262e-08
-7.72649e-15
-1.28936e-09
4.81962e-08
1.94004e-09
-7.61131e-10
-2.81785e-09
2.38891e-10
-5.12953e-10
4.6865e-10
1.43722e-09
-9.64018e-15
7.91375e-15
0.000747548
-7.0254e-05
-0.000157089
6.51647e-09
0
-7.72415e-17
3.05988e-10
-9.1508e-07
8.35955e-07
8.70513e-16
-3.08668e-15
2.09218e-07
9.7101e-06
2.34817e-06
4.05485e-08
0
1.09774e-06
1.84275e-07
6.89886e-07
4.88656e-06
2.11213e-09
3.17195e-10
1.06048e-07
-9.82821e-08
3.24912e-07
1.84943e-06
-5.17162e-07
-9.88017e-12
4.88917e-11
8.48634e-07
-6.48764e-14
-9.54081e-12
3.77797e-07
3.58536e-07
-7.79211e-07
2.0056e-10
2.21945e-09
3.52404e-18
-7.18202e-18
-5.618e-08
2.24466e-08
5.06502e-06
1.65656e-05
5.97487e-17
-8.92744e-19
-1.5995e-08
-1.25404e-08
1.74221e-08
-1.5855e-08
-6.33205e-08
-3.2711e-07
1.77895e-05
7.05421e-11
-6.55548e-10
-1.68866e-08
4.15419e-11
1.03168e-05
9.85021e-07
-1.86292e-15
-6.93541e-14
3.6885e-05
-1.3265e-05
-2.45357e-05
4.87436e-09
4.44499e-08
-7.05285e-06
-8.33822e-11
0
1.61943e-07
-1.23753e-14
6.88385e-15
2.94028e-18
-3.51865e-18
-3.21972e-08
-8.07791e-11
9.86956e-08
9.43491e-11
1.3579e-10
1.55698e-05
-3.57509e-23
1.26945e-21
1.19718e-14
-5.95773e-14
0
0.000674572
-0.000715359
2.57702e-05
-9.87707e-06
2.27406e-07
5.45676e-07
1.52397e-07
-1.5066e-07
8.42333e-07
0.000316634
2.84724e-08
0
-6.20557e-08
0
-1.9848e-08
2.70555e-08
3.61268e-09
-1.9811e-08
8.02592e-05
9.05692e-08
1.41312e-07
-2.53466e-14
1.44987e-05
1.14881e-09
7.72428e-09
7.83638e-10
1.62411e-06
3.83945e-07
-5.43117e-07
1.66707e-17
-9.15484e-16
3.07177e-05
-8.02107e-06
2.46957e-07
1.28942e-07
2.13978e-07
2.24329e-09
3.37775e-07
4.52379e-19
1.05734e-08
1.44655e-07
1.22543e-15
-8.17451e-15
0.000457063
-0.000457063
1.03412e-08
0.000740252
-0.000764797
-1.00413e-08
1.037e-08
1.63991e-08
1.9458e-07
0.000154587
1.06149e-09
3.57051e-09
4.84424e-09
5.15566e-06
2.2338e-06
-2.96705e-06
1.78092e-08
-7.6542e-08
5.10208e-08
6.21336e-09
-5.95927e-06
1.1123e-05
3.16802e-18
2.81191e-07
-1.16127e-11
2.1935e-10
2.56863e-09
1.32514e-05
-3.51826e-06
0.000180515
0.000917784
-7.64637e-20
3.6152e-19
1.59574e-08
-3.47692e-08
4.17127e-11
7.64171e-15
-7.61353e-16
3.75798e-07
-3.63708e-07
1.18429e-11
2.92959e-11
0.000829093
1.14058e-07
-1.20708e-06
1.19041e-05
-1.06901e-15
1.99535e-05
-9.45244e-06
6.58835e-10
9.8467e-06
3.01493e-05
-1.25572e-05
-4.81574e-16
1.31521e-17
-1.55015e-06
-0.000222195
0.000114324
1.43435e-08
-2.45928e-11
3.34903e-11
2.19439e-05
1.75237e-06
-5.18645e-19
3.09151e-11
9.25162e-10
1.44227e-09
3.42188e-08
6.62289e-11
-1.531e-07
2.0004e-07
1.32044e-07
2.0252e-05
-1.72074e-06
1.36691e-15
-1.6988e-15
0.000107941
-8.75042e-06
-9.24397e-08
-1.31139e-06
5.60469e-12
-1.91982e-08
-6.75697e-12
1.56109e-14
-7.96509e-14
5.08442e-06
-4.13555e-06
3.5003e-06
1.50367e-06
-2.99165e-06
8.7103e-07
7.04563e-07
-8.91923e-19
1.99462e-05
-2.67953e-05
0.000774346
8.27706e-08
2.55845e-07
1.05226e-08
3.22242e-09
-4.13766e-08
6.16415e-06
8.79423e-05
2.43514e-07
5.30362e-09
-2.02597e-08
3.81284e-07
-2.88015e-15
-2.00699e-14
6.19638e-06
-6.21321e-06
0.000890991
7.91332e-10
2.55498e-12
3.12927e-05
1.90647e-07
2.40647e-05
-8.58581e-19
3.24936e-18
-5.46991e-20
-1.20513e-06
8.62396e-06
-2.36566e-09
-0.000107004
0.000266678
-0.000159675
9.12155e-15
-3.22466e-14
1.17441e-05
3.00332e-17
-5.36741e-09
3.45398e-09
1.26757e-06
2.33052e-06
-4.40196e-09
1.59477e-07
-1.87888e-09
4.92185e-09
2.673e-11
9.59874e-11
1.25227e-06
4.42684e-07
-6.90961e-07
2.9538e-08
-1.62296e-08
4.71807e-09
1.33055e-08
-6.35379e-18
1.84014e-17
0.000197195
-0.000602741
-4.65564e-15
5.17098e-06
0.000736884
-0.000201908
2.78006e-11
1.65207e-08
9.68282e-11
-3.25091e-06
1.99107e-06
3.6808e-06
-4.28846e-06
-1.78721e-09
5.70987e-09
7.10424e-08
1.07847e-06
-4.78599e-06
1.90007e-08
2.44245e-09
0
-2.59138e-06
4.67134e-06
-1.28556e-06
-3.69525e-06
-3.12099e-06
6.44332e-16
-2.06549e-15
2.78284e-05
-5.44731e-06
2.16085e-06
0
0.000369206
0.000584193
3.54706e-11
2.75687e-11
-1.34885e-07
1.85141e-08
1.22132e-08
9.28338e-08
2.97338e-07
0.000559859
-2.81242e-17
6.04019e-17
2.46044e-05
-4.13274e-06
1.93138e-19
1.97507e-07
-4.15907e-06
-2.85907e-12
-1.03442e-12
3.11351e-11
-3.09586e-09
1.31069e-07
2.30849e-07
3.24916e-08
4.08991e-06
2.43165e-07
2.02266e-10
-2.451e-06
7.42047e-06
1.98843e-05
-1.16059e-06
-6.74458e-08
2.7738e-07
1.02226e-06
2.05419e-08
6.90613e-09
0.000182681
-7.67393e-05
-6.59066e-11
-7.50158e-12
2.71434e-08
0
4.65313e-11
3.19284e-17
3.9746e-07
4.6888e-09
1.81955e-07
1.08884e-18
1.26139e-09
3.14035e-09
-7.11817e-08
9.64994e-08
9.46524e-07
1.12927e-05
1.30806e-07
9.836e-08
4.61183e-05
4.29125e-08
4.24384e-06
2.35183e-05
2.8991e-06
-4.39505e-06
4.46083e-08
3.45017e-14
-6.94698e-12
9.82945e-05
0.000180403
7.02243e-10
1.06972e-08
1.70849e-05
3.696e-06
-1.14723e-06
4.55584e-12
2.25167e-11
-8.41713e-14
1.68827e-14
-5.38829e-14
1.82442e-10
6.8743e-10
1.96616e-05
5.22864e-10
9.82624e-08
1.05924e-08
-2.23927e-08
-2.06909e-06
-5.43635e-06
-9.16733e-10
0.000558791
4.02372e-18
-6.7774e-17
1.04235e-16
1.81597e-11
4.45632e-11
1.53614e-05
1.34277e-08
-7.11732e-11
-1.07938e-06
0
-6.09956e-07
4.21303e-07
-9.9988e-15
2.3961e-07
0.000492597
0.000398396
0.00107679
1.57197e-07
-1.08412e-08
-5.5256e-08
8.37216e-09
-1.07712e-07
0
-1.94751e-06
1.32038e-07
1.71298e-06
2.61579e-06
-7.90139e-08
3.67558e-07
3.97047e-15
-1.05664e-14
3.23731e-08
6.54678e-08
2.83907e-07
4.19038e-11
2.37663e-09
-2.83151e-10
-4.60262e-08
-1.47172e-06
-2.03485e-06
-6.02865e-09
1.17489e-08
8.86837e-14
5.01898e-06
2.81041e-07
-1.69485e-07
1.02887e-07
1.49354e-09
7.22874e-08
-8.77381e-11
1.34139e-10
3.08643e-06
3.59642e-09
1.50857e-07
-2.49456e-11
7.8476e-06
1.00697e-17
2.107e-07
-4.31812e-06
-7.4249e-08
3.38815e-07
3.69068e-18
0.000431398
0.000337381
1.40869e-06
-4.63825e-07
0.000575502
2.16249e-09
1.18667e-06
6.33506e-06
3.14209e-11
1.01492e-10
-6.37155e-12
0.000233232
0.000541114
1.71527e-06
2.79329e-06
1.36804e-06
8.33487e-06
3.81073e-08
1.04136e-14
-7.85929e-15
1.26249e-10
6.67949e-11
-9.92997e-07
1.56713e-07
-0.000127775
-0.000200123
-3.21091e-05
4.45499e-06
2.86431e-05
-1.07186e-07
1.17842e-07
-7.58247e-17
7.25411e-17
2.04916e-11
1.78705e-08
-7.07638e-13
3.06449e-11
-6.34694e-08
8.84541e-08
1.10259e-06
2.29371e-06
4.11665e-18
-4.2186e-18
-1.07545e-14
8.46691e-15
-6.81247e-09
1.45786e-08
1.79768e-10
-4.15006e-06
7.91434e-11
-8.5707e-07
1.56516e-05
1.98403e-09
-1.08358e-08
1.29036e-08
1.38649e-07
-1.64228e-07
-1.25587e-18
3.89009e-18
-1.48366e-07
1.46135e-07
-2.34979e-05
2.35833e-05
1.18623e-07
4.03035e-08
5.6077e-06
0
6.85439e-08
5.81147e-06
-1.17597e-06
2.78139e-07
-6.9341e-06
3.59338e-06
-1.18844e-06
-0.000640268
-3.40543e-06
4.48933e-09
7.17562e-12
-9.43442e-10
2.00155e-07
-1.51356e-07
5.14931e-07
0
2.84989e-06
-4.4826e-07
6.92347e-07
-2.9841e-12
5.31483e-14
-3.2051e-13
8.779e-07
4.06234e-12
-1.8276e-11
5.22365e-07
-6.02383e-19
1.7405e-17
3.08252e-06
1.71718e-06
-3.89596e-08
-4.71939e-07
-2.73288e-07
4.24127e-07
1.18007e-07
2.49824e-07
-2.33596e-14
9.48634e-15
-1.98208e-14
-0.000920822
0.0012598
2.34129e-08
7.78463e-07
0.000157629
2.36573e-05
-1.47811e-05
-1.19486e-08
3.47037e-07
-8.68535e-19
2.41346e-18
-1.16748e-08
4.9179e-08
7.44031e-09
-1.23112e-12
1.22987e-12
-0.000222082
0.000135723
8.63599e-05
4.62342e-11
-6.57845e-16
-4.73309e-07
-1.64105e-06
4.40967e-06
-6.34315e-06
0
-1.13544e-08
1.18175e-05
4.45623e-08
-3.29947e-10
6.26067e-06
-1.80902e-06
7.42677e-12
1.20332e-11
2.83966e-11
-5.20073e-18
1.1681e-17
2.30551e-09
0.000210455
-0.000231698
7.25561e-05
0.000169546
0.000226486
1.28108e-11
-1.10907e-17
-1.89152e-17
7.86074e-10
-7.41477e-08
9.49514e-08
3.04331e-08
3.90698e-06
0.000122475
5.11647e-06
1.76082e-10
1.23379e-11
-9.70131e-11
0.000139715
0
3.89714e-06
2.12229e-06
1.02738e-05
-4.23035e-07
5.43294e-07
7.53546e-07
3.00891e-11
1.30269e-10
-1.77654e-08
1.10815e-07
-0.000418097
0.000722038
-4.13071e-07
4.37238e-07
-1.61699e-08
2.2096e-09
0
4.23615e-08
-2.05068e-17
3.77439e-17
-2.85911e-08
1.72492e-07
2.41698e-08
-1.1732e-10
1.27051e-10
-1.07778e-10
-3.78651e-06
2.31113e-06
0.000115903
-0.000186157
4.69609e-07
-2.28833e-08
4.57766e-07
1.38948e-05
-1.23706e-05
4.36765e-09
-1.04776e-06
-2.9892e-07
6.07848e-11
1.91212e-07
-1.42237e-08
3.03662e-10
-1.24283e-10
-2.73408e-08
4.09399e-07
-6.25483e-07
1.46641e-06
7.21526e-05
-0.000179156
2.04568e-17
6.7452e-06
-2.25153e-06
-2.44541e-08
4.4577e-08
4.76483e-07
-7.89995e-06
-5.859e-06
-8.83362e-08
3.47765e-08
6.54788e-07
-4.82815e-05
-1.1302e-06
1.79036e-06
3.93569e-08
6.32685e-13
-5.3751e-12
-0.000221463
3.09635e-11
2.35295e-10
2.05221e-07
-1.1289e-08
1.84128e-08
-7.12153e-07
-8.26336e-07
1.28957e-05
3.97276e-05
-5.43404e-17
8.21807e-17
-3.27109e-13
-3.75278e-07
1.21341e-07
5.74792e-11
-9.74211e-10
-1.68197e-10
3.11942e-06
-5.97544e-06
3.82394e-06
7.08285e-07
1.14341e-07
-7.67189e-08
8.84278e-11
2.69648e-07
-1.07096e-06
1.03083e-05
-5.09163e-06
6.05697e-11
-2.13285e-11
-0.0011835
0.00137613
7.77404e-05
-9.26713e-07
5.13159e-07
-1.3846e-08
1.44753e-08
1.14964e-12
4.69759e-11
3.76101e-08
0
4.11273e-11
7.26395e-08
4.44414e-06
3.02548e-07
2.04886e-06
-2.16663e-09
5.48052e-10
3.41258e-14
-1.75533e-13
0.000252702
-0.000127614
0.000285151
-0.000169248
7.6577e-12
6.47639e-06
-1.52493e-06
3.72012e-07
0.000110095
7.9698e-08
5.19831e-05
-4.76374e-05
0
-5.61623e-06
9.32742e-06
3.21151e-08
1.07445e-07
-1.34218e-08
-1.08786e-08
3.36296e-08
-1.90692e-15
2.87201e-05
4.91691e-05
1.24604e-05
-2.69471e-06
2.49292e-17
-7.83701e-16
-1.51442e-07
3.43873e-07
-3.41637e-07
2.98067e-08
-1.93964e-06
3.52924e-06
2.93382e-05
-1.40569e-05
1.32235e-07
3.92611e-09
-9.76331e-10
1.03757e-05
-2.35538e-06
-0.000695582
0.00082664
1.94274e-06
-9.63501e-17
1.18363e-16
0
4.86808e-10
-1.66784e-06
1.60039e-06
2.19906e-11
-2.6175e-12
3.28694e-07
5.1774e-06
-1.92371e-06
4.39697e-09
1.85564e-07
0.000226303
-0.00015415
4.46419e-10
3.83028e-05
-9.46646e-06
1.25813e-05
2.32136e-08
-3.95078e-11
1.14906e-09
0
8.11333e-08
2.68433e-10
-5.87185e-08
1.546e-06
4.01457e-05
-4.9578e-06
-2.97602e-07
2.10489e-06
-1.58798e-07
5.83547e-18
7.37431e-10
-3.25709e-07
2.56318e-07
-1.17377e-05
1.26203e-05
8.92009e-17
-0.000121363
4.92885e-09
-1.19964e-11
-3.61881e-12
-1.59093e-09
0.000146342
-0.000241019
2.70137e-06
6.81007e-07
-8.5628e-12
2.69004e-05
-0.000257337
9.7967e-07
2.06699e-07
-2.62369e-08
1.51925e-07
1.43053e-08
9.58033e-11
1.67739e-10
3.08832e-07
-2.2741e-10
6.64042e-06
2.91508e-09
-2.69044e-09
-1.4122e-06
8.22242e-06
9.29147e-11
1.70691e-11
-1.60017e-05
5.89797e-13
-2.17304e-12
-5.01189e-06
-1.29272e-06
5.41138e-07
2.2165e-19
0.000109589
3.21538e-06
-1.3826e-07
8.03263e-07
4.19429e-12
3.45998e-12
2.43421e-08
-1.3139e-05
1.29435e-09
-1.47266e-08
9.92952e-08
1.01624e-06
-8.67452e-08
-8.01826e-08
2.2583e-07
-1.10324e-07
-1.2761e-05
5.04625e-06
1.04836e-16
-1.093e-16
-0.000226877
-0.00130384
0.00127626
8.03466e-05
-0.000259503
5.98818e-08
3.79781e-05
-3.2286e-07
3.41866e-07
-1.62829e-06
1.29923e-06
3.40671e-10
3.33067e-08
2.95223e-08
-2.8368e-08
0
1.48621e-12
9.10289e-10
7.12891e-11
-4.76229e-11
-7.10613e-07
-1.29161e-08
0.000209025
-0.000128678
8.96014e-10
0.000113197
3.31752e-07
-0.00124935
0.00141378
0.000667951
-0.000740282
-0.00149122
0.00156667
5.7839e-09
-4.7906e-09
-0.000800372
0.00105436
-0.000152984
-0.000250966
0.000123352
-0.00163106
0.00124811
-9.32188e-06
-3.89965e-07
0.000169248
-0.000129102
4.24422e-09
-1.00644e-06
1.5343e-06
-7.91255e-10
6.61306e-10
-0.00088099
0.000631841
1.6644e-07
-1.78521e-07
-0.00042488
0.000369593
-1.01187e-14
1.43646e-05
-1.35964e-05
-5.80081e-06
-0.000294367
0.000269467
1.09634e-07
-0.000118033
-3.76527e-05
1.68248e-08
4.50611e-07
3.27183e-07
-0.000239279
0.000212659
-1.21847e-10
1.12351e-10
0.000103303
-8.83861e-05
-1.76775e-09
1.27486e-10
-3.24039e-07
5.9991e-07
7.38568e-07
-8.33166e-07
2.02048e-06
4.5802e-10
-4.73605e-10
5.32185e-07
-1.39924e-08
-7.75606e-08
9.24813e-12
1.46633e-11
0.00127423
-0.00130681
1.24655e-06
-1.00472e-07
-0.000102592
1.11137e-07
-1.70862e-07
2.89418e-12
-6.70706e-12
6.50071e-10
9.73548e-05
1.13156e-07
5.48745e-05
-0.000185241
0.000170956
-3.25806e-06
-3.06795e-09
-1.66074e-08
1.25398e-11
-2.22153e-07
1.68752e-07
-5.21834e-09
0.000290062
5.62825e-07
-5.63703e-07
0
-1.03478e-13
-4.37483e-06
4.51573e-06
0.00130873
-0.000503219
-0.000806805
5.92432e-05
-6.59966e-05
1.23668e-15
-2.15031e-15
3.55219e-07
-2.23788e-06
2.43393e-06
-4.90193e-07
-4.21374e-11
4.44952e-11
0.00133569
-0.00136086
-9.27027e-11
9.4655e-10
-2.51727e-06
5.76042e-06
0.0014151
-0.00146196
8.94271e-07
-1.07883e-06
-7.08286e-06
7.4475e-17
8.64577e-08
-3.19575e-10
-4.78214e-11
2.11633e-06
-7.56016e-07
-0.000156106
0.000177991
6.54644e-07
-8.67386e-11
2.96839e-10
1.16698e-07
0.00155346
-0.00164057
1.24291e-10
6.68283e-11
-1.2088e-07
4.66421e-07
0
3.5115e-12
-2.49586e-17
8.87109e-10
-1.71104e-06
5.13127e-07
1.10109e-11
-3.58498e-08
8.09825e-05
-0.000233967
1.47556e-06
0.000175937
-9.49544e-05
-1.09153e-06
0.00049515
-1.13856e-06
5.68271e-05
8.04942e-05
-8.77226e-05
-2.29346e-07
4.12602e-07
0.000129102
-7.42273e-05
2.23675e-09
5.45861e-11
2.8312e-06
-2.497e-06
4.72588e-05
-0.00114971
0.00115253
0.000311409
-0.000543761
7.93208e-12
4.57395e-12
-4.62732e-09
-1.31309e-07
-0.000123872
-1.14748e-12
-4.49287e-13
-7.52395e-11
0.00170413
-0.00165258
2.64752e-06
-6.83265e-06
0.00131224
-6.8874e-05
7.01889e-11
0
-4.0589e-11
2.29232e-10
4.21641e-07
2.04389e-09
4.57562e-07
0.00119093
-1.10425e-14
1.68411e-15
-0.000181243
0.000126262
5.32322e-11
4.45021e-10
-1.39127e-13
1.74401e-14
-5.41005e-06
3.79372e-06
-0.000207729
8.3857e-05
-5.01309e-06
5.26745e-06
-0.000225032
0.000122443
4.76802e-06
-2.35412e-06
7.50298e-11
-3.64469e-06
2.9404e-06
-9.9853e-06
9.59306e-05
-0.000104048
5.99409e-10
-1.59796e-10
3.79991e-13
-1.75805e-12
0.00165102
-0.00135883
7.7575e-07
4.59842e-07
1.02655e-09
-1.15648e-07
0
8.39191e-07
-1.10391e-10
3.70252e-10
-1.80819e-06
7.67156e-05
-2.92091e-05
1.6847e-05
-3.41626e-07
3.80455e-07
1.96816e-05
-0.000102573
2.40942e-07
-3.27196e-07
4.59073e-05
-4.6122e-05
3.1005e-10
7.42273e-05
-2.69686e-05
-5.31308e-05
5.0966e-05
-3.35905e-07
3.36547e-07
-7.61891e-09
5.09699e-08
-4.84503e-05
4.76328e-05
0.0013567
-0.000859423
0.000543658
-0.000462257
-8.43768e-05
-4.49309e-05
4.44971e-05
-2.24583e-07
-1.18512e-15
2.58437e-09
2.09476e-11
2.9601e-09
-1.39572e-09
0
-1.28955e-10
6.51439e-07
-8.81311e-07
1.54401e-07
2.74414e-06
-1.2287e-06
-7.68058e-05
5.55344e-05
3.14397e-09
9.16897e-08
-7.31817e-05
0.0001112
-0.000117807
-2.90808e-16
1.70192e-06
1.00124e-08
6.1827e-08
-1.1613e-05