/*--------------------------------*- C++ -*----------------------------------*\
  =========                 |
  \\      /  F ield         | OpenFOAM: The Open Source CFD Toolbox
   \\    /   O peration     | Website:  https://openfoam.org
    \\  /    A nd           | Version:  8
     \\/     M anipulation  |
\*---------------------------------------------------------------------------*/
FoamFile
{
    version     2.0;
    format      ascii;
    class       volScalarField;
    location    "0.7";
    object      epsilon;
}
// * * * * * * * * * * * * * * * * * * * * * * * * * * * * * * * * * * * * * //

dimensions      [0 2 -3 0 0 0 0];

internalField   nonuniform List<scalar> 
1924
(
0.0256444
0.0326052
0.050293
0.0495
0.0363865
0.0515902
0.0507265
0.0525429
0.0518261
0.0474816
0.0529219
0.052182
0.0220811
0.0531782
0.0534003
0.0537278
0.0277969
0.0525494
0.022303
0.0530608
0.0150158
0.0570536
0.0345993
0.0523048
0.0575726
0.0544503
0.0536456
0.0387015
0.0424344
0.0270984
0.0347592
0.0582773
0.0228252
0.0281338
0.0409061
0.0368115
0.0577797
0.0439208
0.0255831
0.0328487
0.0567421
0.016639
0.0564303
0.0300198
0.0343825
0.0411009
0.0259479
0.037844
0.00800493
0.010157
0.0168163
0.0214862
0.0550763
0.0157602
0.0394345
0.0433503
0.0224375
0.0363582
0.0367622
0.0546963
0.0294489
0.0542638
0.0227876
0.0242518
0.016387
0.0394669
0.0549567
0.0404896
0.0433755
0.0166056
0.0195784
0.0543979
0.0250548
0.0285953
0.0312545
0.035666
0.0410584
0.0333165
0.0369644
0.0216815
0.0452771
0.0528565
0.0311658
0.0162706
0.0214738
0.0415581
0.0385016
0.0543015
0.00799076
0.017729
0.0550996
0.0527522
0.0425342
0.0506294
0.0222798
0.0169339
0.0427
0.0462721
0.0539732
0.0304577
0.0523535
0.0206102
0.0539208
0.0529626
0.0520603
0.0393275
0.0533883
0.0517946
0.0548757
0.0508484
0.0449606
0.0502189
0.0421969
0.0297943
0.0366067
0.0125225
0.052178
0.0516259
0.0493523
0.0401351
0.0168579
0.0224244
0.0117538
0.0120512
0.0548269
0.054937
0.0391859
0.0349651
0.0512395
0.0439688
0.044306
0.0533955
0.178628
0.031041
0.0235045
0.0539979
0.0494011
0.0506039
0.0524476
0.0426739
0.0402179
0.0546884
0.200382
0.126228
0.0534664
0.0224147
0.0532149
0.0274737
0.054553
0.050235
0.0290535
0.04415
0.0380475
0.0546008
0.0530888
0.0557506
0.0226985
0.0496799
0.0468485
0.22859
0.0290025
0.0369243
0.0543929
0.0233212
0.0245521
0.0548649
0.0562149
0.02897
0.0396149
0.0538854
0.0302901
0.0541261
0.0388592
0.0537428
0.042402
0.0534474
0.0275972
0.0661893
0.0374943
0.0551924
0.056883
0.0508979
0.0340761
0.056732
0.00752221
0.0320207
0.0406529
0.0572055
0.0429685
0.030566
0.0528733
0.0537251
0.0463864
0.0548876
0.0570237
0.0466442
0.0567984
0.0540774
0.0560123
0.0529893
0.0629956
0.0344524
0.0553054
0.0543859
0.0355307
0.0570515
0.0553712
0.0390381
0.0326099
0.192314
0.0249187
0.0539442
0.0528046
0.057236
0.0569367
0.0369353
0.0546535
0.0540315
0.0549732
0.0344395
0.055667
0.0316838
0.0561138
0.0533784
0.0539885
0.0562287
0.0481642
0.0417049
0.0571735
0.0530521
0.123054
0.0548162
0.0563445
0.0897498
0.0555639
0.2262
0.0520236
0.0550173
0.0562295
0.0495167
0.0479194
0.0569252
0.0512165
0.0401433
0.182485
0.0298877
0.0543587
0.0438935
0.0345328
0.0400768
0.0345732
0.0313033
0.0572666
0.0550685
0.0424668
0.0525087
0.0540113
0.0568616
0.0562784
0.0547217
0.0566933
0.0567923
0.0538669
0.0373228
0.0585696
0.0306635
0.0156899
0.0372075
0.0394779
0.0725315
0.0515589
0.028412
0.0306463
0.0569504
0.0548469
0.0443498
0.0539836
0.0549123
0.054994
0.0558994
0.0484736
0.0738258
0.0548628
0.056443
0.0158622
0.0302333
0.0476475
0.0387071
0.0546235
0.0569718
0.0566654
0.0266833
0.0542829
0.0508183
0.0103468
0.0243278
0.0531489
0.0387568
0.0353189
0.051624
0.0701397
0.055876
0.0501365
0.0539528
0.0542486
0.05609
0.0167693
0.0490142
0.0569585
0.0337827
0.0329231
0.0498441
0.0563722
0.0548466
0.0452727
0.0202067
0.0570287
0.0544953
0.0568801
0.0572846
0.0285173
0.0516187
0.0556383
0.026782
0.0545653
0.0428945
0.0569354
0.0569998
0.0456264
0.0488399
0.0560294
0.0548972
0.0545469
0.0539463
0.0326809
0.0537042
0.0548749
0.0563723
0.0552939
0.0562481
0.0415267
0.0289237
0.0580143
0.0397136
0.0520629
0.0524481
0.131154
0.0532965
0.0512911
0.0559057
0.0566227
0.178142
0.0955305
0.0498589
0.0304746
0.0390211
0.00761947
0.0545211
0.0566301
0.0170926
0.0536392
0.050492
0.048914
0.0546243
0.0574157
0.0558871
0.057453
0.0504786
0.0551112
0.0561727
0.0477711
0.0572863
0.0574677
0.0472135
0.0529388
0.0317977
0.0511729
0.052592
0.0589461
0.0527396
0.0526146
0.0370845
0.05669
0.0572995
0.0551265
0.0466229
0.0309882
0.0547338
0.0530006
0.0559414
0.115145
0.0552077
0.0561534
0.053363
0.0552412
0.220096
0.0539373
0.0590836
0.0480818
0.0519708
0.0254714
0.0341031
0.0393184
0.0428281
0.061791
0.0544378
0.0452936
0.0530707
0.0569768
0.0543735
0.0533637
0.0550287
0.0545364
0.0554055
0.0543555
0.0539892
0.0431354
0.0495333
0.0451171
0.0459343
0.0487793
0.0507962
0.0442576
0.0336468
0.0572121
0.0477896
0.0447335
0.0274511
0.0580679
0.0540891
0.0543631
0.0420147
0.0549437
0.0529065
0.0550137
0.0539725
0.0467169
0.012905
0.0549334
0.0579479
0.0551737
0.0531992
0.0570183
0.0193171
0.0504688
0.178028
0.0539317
0.0318294
0.0556512
0.0534119
0.0509199
0.057755
0.0563322
0.0488875
0.0531975
0.0546991
0.0453993
0.0497284
0.0532725
0.0494906
0.0401659
0.0595486
0.0218835
0.0515668
0.0408239
0.0529485
0.0511665
0.0542346
0.0546402
0.0338132
0.054161
0.0558165
0.0285407
0.0442712
0.0507073
0.0384032
0.0261961
0.0549007
0.0494672
0.0486587
0.0540293
0.0544264
0.0543305
0.050181
0.0595704
0.0547648
0.0543074
0.0455333
0.0551683
0.0466447
0.0150375
0.0552581
0.0557155
0.0476585
0.0478114
0.0430334
0.0494612
0.053218
0.0540634
0.0268505
0.0468706
0.0499281
0.0542668
0.0584141
0.0326901
0.0532607
0.0483491
0.0532687
0.0584506
0.045571
0.0356313
0.041946
0.0529722
0.0559348
0.0513671
0.0506592
0.0592789
0.0540205
0.0545031
0.0488625
0.0546162
0.0487219
0.0404567
0.0443858
0.0550875
0.0532811
0.0289737
0.0313402
0.0533231
0.0545053
0.0534726
0.0547272
0.0582396
0.0421792
0.0407975
0.0488255
0.0543684
0.0511022
0.027135
0.0551404
0.0600902
0.025629
0.0241047
0.0332806
0.0429662
0.0554201
0.0276461
0.0235817
0.0478405
0.0480856
0.0554338
0.0533375
0.0481764
0.0568019
0.0542125
0.0436817
0.0357166
0.0182201
0.0252151
0.0262862
0.0564979
0.0553943
0.0426611
0.0529727
0.0545703
0.0446193
0.0389526
0.0479246
0.0281201
0.0599955
0.0417808
0.0548842
0.0538861
0.0515052
0.0296793
0.049571
0.039553
0.0358602
0.0458178
0.0472865
0.0598616
0.0470485
0.0545878
0.0508268
0.0169378
0.0296873
0.0467755
0.0516089
0.0403407
0.0278743
0.0534897
0.0572324
0.0530677
0.0188121
0.022567
0.0447243
0.0484707
0.0434263
0.0475957
0.054313
0.0169895
0.0472351
0.0544218
0.0239477
0.0590275
0.0547253
0.0528354
0.0365719
0.0455145
0.05269
0.0541182
0.0473134
0.0414034
0.0459917
0.0604324
0.0468124
0.054683
0.0421829
0.0173694
0.0225805
0.0431617
0.0389486
0.0495189
0.0576619
0.0546801
0.0276281
0.0374475
0.0469237
0.0529495
0.0448392
0.0466482
0.0555002
0.0428593
0.0533054
0.0590793
0.017152
0.0553758
0.022447
0.0551552
0.0418351
0.0533068
0.051865
0.0604205
0.0539328
0.0531458
0.0464232
0.0596908
0.0457594
0.054977
0.0545643
0.0572257
0.0511682
0.0476589
0.054226
0.0399505
0.049975
0.0563721
0.0345046
0.0536681
0.0465478
0.0466391
0.0316484
0.0277924
0.0402573
0.0491969
0.0238891
0.0551147
0.046633
0.0585384
0.0602682
0.0604951
0.0368414
0.016207
0.0469618
0.0462418
0.0388657
0.0549405
0.0463479
0.0251715
0.0430278
0.0449046
0.0455596
0.0473782
0.0476926
0.0573532
0.0548307
0.0485483
0.0243829
0.0435871
0.0359221
0.02679
0.0552154
0.0492217
0.0553061
0.0579079
0.0453901
0.0445296
0.0306597
0.0603356
0.0597812
0.0367607
0.0542803
0.0553016
0.0353465
0.0207417
0.055193
0.0524992
0.0550135
0.0421829
0.0597726
0.059173
0.0307966
0.0517991
0.0258146
0.0537555
0.0529963
0.0505757
0.0564764
0.0450981
0.0118275
0.0285148
0.0487703
0.0351333
0.0416474
0.0464814
0.0276455
0.0759878
0.0195491
0.0428832
0.0404542
0.049777
0.0477226
0.0235518
0.059716
0.0476763
0.054505
0.0482019
0.054312
0.0485042
0.0554081
0.0254267
0.049339
0.035253
0.0568315
0.0507524
0.064194
0.0601731
0.0433602
0.0601249
0.0389954
0.0579972
0.0524987
0.055052
0.0214599
0.0218338
0.0540603
0.0238922
0.021446
0.0256243
0.0486736
0.0237448
0.0491658
0.0491397
0.0367832
0.0591559
0.0461858
0.054796
0.0593045
0.0380117
0.0552493
0.0499758
0.0552116
0.026835
0.0514045
0.0373825
0.0436283
0.0601325
0.0544232
0.0414288
0.0524858
0.0538561
0.0314598
0.0554285
0.0457193
0.053171
0.0227274
0.046484
0.0545815
0.0438005
0.0247655
0.047848
0.057874
0.0440323
0.0505544
0.0581879
0.0352692
0.0425773
0.0147346
0.054298
0.0593452
0.0205133
0.0445773
0.0551836
0.0230446
0.0317913
0.0440402
0.0219573
0.0498291
0.0498773
0.0588768
0.0232041
0.0408877
0.026825
0.0602773
0.0601246
0.0456286
0.0518451
0.0327118
0.057452
0.0501453
0.0558331
0.0542038
0.0428273
0.0369186
0.0493766
0.0394445
0.0574033
0.0488255
0.0498335
0.0472087
0.0516254
0.031816
0.0603134
0.0550626
0.0579739
0.0548734
0.0293684
0.0524065
0.0370252
0.0604164
0.0500922
0.0607676
0.0547357
0.0544534
0.00834705
0.0577913
0.0545186
0.0568766
0.0544245
0.0595617
0.0553307
0.0502566
0.0434339
0.0299786
0.0511763
0.0520239
0.0568047
0.059695
0.0273999
0.0235875
0.0523399
0.043824
0.0513061
0.0231337
0.0541342
0.0505024
0.0319581
0.0550293
0.0458639
0.049506
0.0355921
0.0605567
0.0531173
0.0553453
0.058318
0.0227134
0.0302079
0.0528531
0.0184641
0.0535775
0.021071
0.060626
0.0548376
0.0216707
0.0520561
0.0567805
0.0501801
0.0511077
0.0514983
0.0505719
0.0571066
0.0319267
0.0447642
0.051825
0.0422466
0.0422753
0.041074
0.0581649
0.0550242
0.0511535
0.0491287
0.0208929
0.0598903
0.0230809
0.0547826
0.0563302
0.0418337
0.0378285
0.0545936
0.0418471
0.0547181
0.0221133
0.0399901
0.159292
0.027039
0.0504492
0.0410333
0.0545593
0.0585566
0.0242012
0.021885
0.0529635
0.0564888
0.0274649
0.0374841
0.0502963
0.0303146
0.0542306
0.0551169
0.0538145
0.0574924
0.058363
0.054929
0.0586375
0.0509647
0.0375297
0.0557362
0.0602835
0.0534015
0.0512124
0.0245848
0.0806832
0.0360826
0.0150229
0.0672549
0.0517517
0.0570231
0.0505431
0.0475894
0.0626466
0.0570936
0.0556605
0.144248
0.061338
0.0542987
0.0697651
0.0534032
0.0414187
0.0491352
0.0593649
0.0278888
0.032556
0.0611955
0.0539345
0.0325325
0.0503571
0.0451371
0.0559185
0.0546604
0.0356476
0.0247344
0.0604121
0.0222207
0.0547471
0.0531247
0.020317
0.051213
0.054032
0.0528836
0.0453894
0.062035
0.053613
0.0554373
0.0594499
0.0545618
0.0537269
0.0569067
0.0195511
0.018298
0.0603193
0.0542764
0.0506727
0.0307082
0.0591335
0.0617321
0.0228436
0.0586052
0.0573902
0.0577692
0.0513899
0.0547455
0.0423071
0.0578585
0.0613334
0.0617592
0.0406195
0.0640063
0.050056
0.0402787
0.021184
0.0595322
0.0459692
0.0647993
0.0511143
0.0400022
0.0378495
0.0506262
0.0526454
0.0611384
0.0554838
0.0401135
0.0578085
0.0405494
0.0407735
0.0231974
0.0248843
0.0503434
0.060618
0.0520962
0.0324962
0.0258585
0.0225262
0.0563877
0.0366963
0.0556375
0.0267817
0.0298943
0.0609607
0.0513335
0.0264263
0.0566463
0.0530821
0.0653223
0.053736
0.0556627
0.066177
0.0547365
0.0329886
0.0539959
0.0545351
0.0503113
0.0613214
0.0416929
0.0496601
0.0601736
0.044076
0.0538043
0.054646
0.047596
0.053352
0.0605631
0.0530105
0.0540039
0.0621921
0.0181795
0.0511333
0.0234185
0.0611707
0.0552282
0.0317006
0.0359084
0.0689919
0.0392352
0.0612977
0.0625571
0.0522911
0.0508246
0.0807489
0.064596
0.0624436
0.056001
0.0446925
0.0500723
0.0628484
0.0106721
0.0519028
0.0590032
0.0254246
0.0505534
0.0696077
0.0507579
0.0637255
0.0608353
0.0432367
0.045815
0.0600238
0.0498275
0.0680563
0.0447723
0.051268
0.0460242
0.0613589
0.0642887
0.0566938
0.0441977
0.0546705
0.0167617
0.0545936
0.0538413
0.060099
0.0548195
0.0480933
0.0579987
0.111593
0.11824
0.0542046
0.0526367
0.0611288
0.0383431
0.0626252
0.0552045
0.0530857
0.0513771
0.0688369
0.0388556
0.0375716
0.0476238
0.0500387
0.0633848
0.0433285
0.0237633
0.0656588
0.0564132
0.0706337
0.0635871
0.0597052
0.0556512
0.0369997
0.0335157
0.0318941
0.0639658
0.0682239
0.11436
0.0291292
0.0507044
0.0641113
0.049289
0.0591266
0.064486
0.0455571
0.0162808
0.0501801
0.0322397
0.0717899
0.0643489
0.0669449
0.0392902
0.0513127
0.0532572
0.0283266
0.0498373
0.0516323
0.117675
0.0514213
0.0604057
0.0333733
0.0394934
0.0494119
0.026841
0.0645705
0.0419731
0.0581586
0.054697
0.0424799
0.0543013
0.0623281
0.0493022
0.0157772
0.0319208
0.059901
0.0576315
0.0514628
0.0710047
0.0568393
0.0502385
0.0572351
0.0753033
0.0630618
0.0543214
0.0553031
0.0527601
0.0600768
0.0547488
0.0133719
0.0422343
0.067896
0.022474
0.0555205
0.062019
0.0486057
0.0540287
0.071624
0.0492558
0.0546296
0.0510147
0.0633197
0.0580463
0.0253702
0.0246271
0.0660256
0.0642479
0.0615624
0.0479689
0.070448
0.0468385
0.0259988
0.0697147
0.0638831
0.0362612
0.0265905
0.0354682
0.0529059
0.0592067
0.0647218
0.0289986
0.0730981
0.0498274
0.0484062
0.0165925
0.0535852
0.0364628
0.0615819
0.0519798
0.0370439
0.067417
0.0646783
0.0690674
0.0530244
0.0514865
0.0546939
0.051689
0.0622118
0.0497477
0.0343725
0.0314319
0.0720192
0.0647018
0.0489412
0.0576202
0.0792679
0.0496239
0.0604947
0.0631827
0.062489
0.0561082
0.0431654
0.0336903
0.0200322
0.0489627
0.0487429
0.0591918
0.0637391
0.109158
0.021658
0.0625594
0.0471054
0.0498185
0.064494
0.052618
0.0372939
0.0553206
0.032819
0.0424536
0.0477687
0.0270037
0.0571879
0.0715527
0.0554986
0.0516137
0.0443638
0.0159736
0.0530227
0.0633133
0.0732825
0.0600476
0.0546761
0.0543933
0.0706809
0.0488691
0.0580354
0.0603202
0.0647492
0.0568038
0.0226282
0.0500467
0.0468047
0.0654508
0.0702999
0.051034
0.0642298
0.0848197
0.0538321
0.0599449
0.0215032
0.0711339
0.0575881
0.0262622
0.0536047
0.0809426
0.050877
0.0669677
0.0406253
0.0817965
0.0120785
0.0610576
0.0349308
0.0349188
0.0440014
0.0608774
0.0490674
0.0719079
0.0640604
0.0551298
0.0581769
0.064567
0.049443
0.0852462
0.0617148
0.0343123
0.0473795
0.05109
0.073832
0.0492851
0.049062
0.0518426
0.0499382
0.0331197
0.0483454
0.0731817
0.086304
0.0930109
0.0278491
0.0511011
0.0598452
0.12415
0.0485775
0.0556555
0.0592226
0.05149
0.0634766
0.0660695
0.0443716
0.0768005
0.0981729
0.058884
0.0678326
0.0570088
0.0262141
0.0414032
0.0365474
0.0239399
0.0591899
0.0339731
0.0564743
0.0709935
0.0554051
0.0534265
0.0706345
0.0487032
0.0720002
0.0509587
0.0783876
0.0843842
0.0725557
0.0673992
0.0203182
0.102291
0.0551727
0.0439116
0.0570654
0.150803
0.0409277
0.163077
0.0504601
0.0767604
0.0237549
0.0162735
0.179302
0.0670986
0.047173
0.0537681
0.0585488
0.0334808
0.192629
0.0589069
0.202417
0.0328722
0.0268029
0.210286
0.0640098
0.0125992
0.0589254
0.0602738
0.0686257
0.104874
0.216817
0.0532367
0.0433494
0.050838
0.0538681
0.0614719
0.0595802
0.0642122
0.0502694
0.0511482
0.049062
0.144152
0.0628698
0.0142244
0.0538937
0.0316951
0.050383
0.0444812
0.0476501
0.128828
0.0195463
0.222281
0.0519911
0.0377371
0.0489968
0.0627107
0.0534576
0.0408454
0.0606977
0.0522517
0.107024
0.03209
0.0686712
0.0369393
0.261036
0.0276017
0.0600916
0.0655751
0.0682407
0.0503413
0.141178
0.0524149
0.0557505
0.138105
0.0566232
0.072103
0.0581675
0.0608545
0.0333752
0.071212
0.227644
0.063522
0.0547864
0.056198
0.1332
0.0502578
0.0633225
0.0621154
0.0534193
0.0690057
0.0531289
0.0263935
0.0551527
0.0745786
0.0499447
0.0649538
0.0203247
0.0717688
0.0166477
0.0741637
0.0370642
0.0563757
0.0663469
0.260169
0.261868
0.11049
0.0576143
0.045381
0.0520537
0.0644141
0.0165462
0.0813597
0.133866
0.0105244
0.050393
0.0335971
0.0412174
0.0193558
0.0305396
0.0298225
0.123539
0.0590913
0.0353733
0.0508481
0.0539924
0.0630399
0.0514477
0.0585423
0.0370969
0.0278018
0.232366
0.0527973
0.0546124
0.027309
0.0551545
0.0150326
0.283654
0.0676003
0.0292384
0.300638
0.0600217
0.327681
0.0523784
0.070113
0.359671
0.0601653
0.265331
0.386701
0.0519555
0.0260517
0.114509
0.407714
0.424473
0.0554582
0.0516696
0.0529377
0.0695502
0.0620074
0.0529163
0.0669246
0.0277044
0.0455076
0.0590369
0.438158
0.0569288
0.0676406
0.0592166
0.27537
0.0536229
0.0394237
0.263273
0.0547381
0.0579667
0.268103
0.105511
0.04137
0.013555
0.449857
0.285581
0.0618716
0.14417
0.0264606
0.0532208
0.0577998
0.0289965
0.0550008
0.274566
0.267003
0.0664829
0.0610558
0.257099
0.0728057
0.236677
0.0539932
0.0628198
0.0586139
0.536081
0.529295
0.269342
0.0420245
0.027087
0.0735418
0.0593417
0.0597552
0.0641837
0.0251091
0.0562554
0.0746509
0.0542036
0.239888
0.0695146
0.0245886
0.0578627
0.0969865
0.0344169
0.461144
0.0754073
0.0291594
0.0445836
0.0270147
0.0289398
0.0546588
0.0578849
0.0670925
0.531612
0.0686079
0.0475459
0.0824486
0.0614206
0.0593871
0.0756012
0.0725812
0.0559661
0.0369075
0.0662165
0.296824
0.0570077
0.118797
0.121205
0.0269902
0.221327
0.06934
0.0629749
0.0549075
0.044963
0.0619027
0.0718751
0.0695207
0.0703574
0.0122351
0.0726169
0.470878
0.200645
0.0545067
0.56444
0.152572
0.0742171
0.0672068
0.0681374
0.527318
0.0558384
0.537885
0.273842
0.0751213
0.0506019
0.536254
0.0620532
0.0564638
0.547484
0.0576232
0.0655242
0.0366467
0.0582765
0.0696182
0.0593169
0.063356
0.0621991
0.0624258
0.17465
0.165667
0.0750474
0.0115069
0.0689504
0.0657361
0.0293004
0.0409068
0.066535
0.0694103
0.586408
0.0312896
0.0754714
0.056384
0.0461331
0.056615
0.0235241
0.03114
0.0350579
0.0650139
0.056966
0.0234471
0.0338562
0.04653
0.278261
0.545805
0.0749328
0.0739864
0.275266
0.0688338
0.241494
0.480085
0.0658959
0.0608972
0.0566206
0.0619304
0.126578
0.125251
0.0625321
0.0595361
0.280897
0.272061
0.0658276
0.0349321
0.0606998
0.0674426
0.0615007
0.0222133
0.0264358
0.0748755
0.0661393
0.0325213
0.308793
0.61002
0.0752499
0.0500356
0.0698547
0.0371336
0.0627843
0.0234167
0.0556982
0.2688
0.119952
0.0614632
0.0628593
0.0626896
0.556627
0.0222866
0.562287
0.278424
0.554859
0.0549152
0.126433
0.0689976
0.0557896
0.0625836
0.0731393
0.550503
0.266034
0.0650964
0.251509
0.255194
0.510352
0.077591
0.151458
0.0748587
0.543805
0.0680261
0.0593426
0.0213186
0.110592
0.65862
0.321311
0.329647
0.281258
0.0516665
0.56573
0.538205
0.0244115
0.0609797
0.0361261
0.0621067
0.0973357
0.535581
0.266888
0.0679474
0.0504539
0.0331448
0.0620754
0.0769839
0.0427169
0.0625491
0.0781496
0.0458497
0.0649148
0.12436
0.0467771
0.0571659
0.0267097
0.0180473
0.041345
0.018122
0.0103048
0.015539
0.00996645
0.0184015
0.0283235
0.523335
0.261813
0.563053
0.258076
0.516127
0.501472
0.267544
0.532532
0.491016
0.246376
0.114521
0.112361
0.634861
0.0796093
0.0535052
0.357418
0.282263
0.0365064
0.540841
0.546051
0.2744
0.550255
0.54347
0.272511
0.63537
0.0229005
0.0351386
0.0538568
0.0758252
0.0621549
0.0806538
0.143913
0.0277731
0.0185638
0.025178
0.124842
0.0299308
0.0517853
0.0168673
0.0309048
0.0760428
0.0267326
0.0380179
0.0274661
0.078361
0.114798
0.0726919
0.0523862
0.0076831
0.0287643
0.0514269
0.0925146
0.011925
0.0463383
0.0293382
0.108902
0.114594
0.0648707
0.0399522
0.0895411
0.0377909
0.0508428
0.0447323
0.0251138
0.0723589
0.0253302
0.0298244
0.0139706
0.0185072
0.0758499
0.0454404
0.0520225
0.0292157
0.0586708
0.0501906
0.0269846
0.0286051
0.0871451
0.0166105
0.0383689
0.0108648
0.00741728
0.0244122
0.0282118
0.0359498
0.0226673
0.0372653
0.0278961
0.0239949
0.0246682
0.0238828
0.0248398
0.0239811
0.0454111
0.00720556
0.0409937
0.0407414
0.0206858
0.0336564
0.00696996
0.0106439
0.0200269
0.0448569
0.00735176
0.0128458
0.0133323
0.0162009
0.0103391
0.00861677
0.0076975
0.0189007
0.046228
0.00934167
0.0453182
0.103517
0.00818096
0.049569
0.00725365
0.0333972
0.0347157
0.0149237
0.0455947
0.0516521
0.00725017
0.00743315
0.0299652
0.0470307
0.0470582
0.00838254
0.0473505
0.0475671
0.0228812
0.0484431
0.0483439
0.015205
0.0496184
0.0157766
0.011429
0.0105188
0.0393923
0.0486854
0.025198
0.046322
0.0504781
)
;

boundaryField
{
    patch0
    {
        type            epsilonWallFunction;
        value           nonuniform List<scalar> 
4010
(
0.0256444
0.0256444
0.0326052
0.0326052
0.050293
0.050293
0.0495
0.0495
0.0363865
0.0363865
0.0515902
0.0515902
0.0507265
0.0507265
0.0525429
0.0525429
0.0518261
0.0518261
0.0474816
0.0474816
0.0529219
0.0529219
0.052182
0.052182
0.0220811
0.0220811
0.0531782
0.0531782
0.0534003
0.0534003
0.0537278
0.0537278
0.0277969
0.0277969
0.0525494
0.0525494
0.022303
0.022303
0.0530608
0.0530608
0.0150158
0.0150158
0.0570536
0.0570536
0.0345993
0.0345993
0.0523048
0.0523048
0.0575726
0.0575726
0.0544503
0.0544503
0.0536456
0.0536456
0.0387015
0.0387015
0.0424344
0.0424344
0.0270984
0.0270984
0.0347592
0.0347592
0.0582773
0.0582773
0.0228252
0.0228252
0.0281338
0.0281338
0.0409061
0.0409061
0.0368115
0.0368115
0.0577797
0.0577797
0.0439208
0.0439208
0.0255831
0.0255831
0.0328487
0.0328487
0.0567421
0.0567421
0.016639
0.016639
0.0564303
0.0564303
0.0300198
0.0300198
0.0343825
0.0343825
0.0411009
0.0411009
0.0259479
0.0259479
0.037844
0.037844
0.00800493
0.00800493
0.010157
0.010157
0.0168163
0.0168163
0.0214862
0.0214862
0.0550763
0.0550763
0.0157602
0.0157602
0.0394345
0.0394345
0.0433503
0.0433503
0.0224375
0.0224375
0.0363582
0.0363582
0.0367622
0.0367622
0.0546963
0.0546963
0.0294489
0.0294489
0.0542638
0.0542638
0.0227876
0.0227876
0.0242518
0.0242518
0.016387
0.016387
0.0394669
0.0394669
0.0549567
0.0549567
0.0404896
0.0404896
0.0433755
0.0433755
0.0166056
0.0166056
0.0195784
0.0195784
0.0543979
0.0543979
0.0250548
0.0250548
0.0285953
0.0285953
0.0312545
0.0312545
0.035666
0.035666
0.0410584
0.0410584
0.0333165
0.0333165
0.0369644
0.0369644
0.0216815
0.0216815
0.0452771
0.0452771
0.0528565
0.0528565
0.0311658
0.0311658
0.0162706
0.0162706
0.0214738
0.0214738
0.0415581
0.0415581
0.0385016
0.0385016
0.0543015
0.0543015
0.00799076
0.00799076
0.017729
0.017729
0.0550996
0.0550996
0.0527522
0.0527522
0.0425342
0.0425342
0.0506294
0.0506294
0.0222798
0.0222798
0.0169339
0.0169339
0.0427
0.0427
0.0462721
0.0462721
0.0539732
0.0539732
0.0304577
0.0304577
0.0523535
0.0523535
0.0206102
0.0206102
0.0539208
0.0539208
0.0529626
0.0529626
0.0520603
0.0520603
0.0393275
0.0393275
0.0533883
0.0533883
0.0517946
0.0517946
0.0548757
0.0548757
0.0508484
0.0508484
0.0449606
0.0449606
0.0502189
0.0502189
0.0421969
0.0421969
0.0297943
0.0297943
0.0366067
0.0366067
0.0125225
0.0125225
0.052178
0.052178
0.0516259
0.0516259
0.0493523
0.0493523
0.0401351
0.0401351
0.0168579
0.0168579
0.0224244
0.0224244
0.0117538
0.0117538
0.0120512
0.0120512
0.0548269
0.0548269
0.054937
0.054937
0.0391859
0.0391859
0.0349651
0.0349651
0.0512395
0.0512395
0.0439688
0.0439688
0.044306
0.044306
0.0533955
0.0533955
0.178628
0.178628
0.031041
0.031041
0.0235045
0.0235045
0.0539979
0.0539979
0.0494011
0.0494011
0.0506039
0.0506039
0.0524476
0.0524476
0.0426739
0.0426739
0.0402179
0.0402179
0.0546884
0.0546884
0.200382
0.200382
0.200382
0.126228
0.126228
0.126228
0.0534664
0.0534664
0.0224147
0.0224147
0.0532149
0.0532149
0.0274737
0.0274737
0.054553
0.054553
0.050235
0.050235
0.0290535
0.0290535
0.04415
0.04415
0.04415
0.0380475
0.0380475
0.0546008
0.0546008
0.0530888
0.0530888
0.0557506
0.0557506
0.0226985
0.0226985
0.0496799
0.0496799
0.0468485
0.0468485
0.22859
0.22859
0.0290025
0.0290025
0.0369243
0.0369243
0.0543929
0.0543929
0.0233212
0.0233212
0.0245521
0.0245521
0.0548649
0.0548649
0.0562149
0.0562149
0.02897
0.02897
0.0396149
0.0396149
0.0538854
0.0538854
0.0302901
0.0302901
0.0541261
0.0541261
0.0388592
0.0388592
0.0537428
0.0537428
0.042402
0.042402
0.0534474
0.0534474
0.0275972
0.0275972
0.0661893
0.0661893
0.0374943
0.0374943
0.0551924
0.0551924
0.056883
0.056883
0.0508979
0.0508979
0.0340761
0.0340761
0.056732
0.056732
0.00752221
0.00752221
0.0320207
0.0320207
0.0406529
0.0406529
0.0572055
0.0572055
0.0429685
0.0429685
0.030566
0.030566
0.0528733
0.0528733
0.0537251
0.0537251
0.0463864
0.0463864
0.0548876
0.0548876
0.0570237
0.0570237
0.0466442
0.0466442
0.0466442
0.0567984
0.0567984
0.0540774
0.0540774
0.0560123
0.0560123
0.0529893
0.0529893
0.0629956
0.0629956
0.0344524
0.0344524
0.0553054
0.0553054
0.0543859
0.0543859
0.0355307
0.0355307
0.0570515
0.0570515
0.0553712
0.0553712
0.0390381
0.0390381
0.0326099
0.0326099
0.192314
0.192314
0.192314
0.0249187
0.0249187
0.0539442
0.0539442
0.0528046
0.0528046
0.057236
0.057236
0.0569367
0.0569367
0.0369353
0.0369353
0.0546535
0.0546535
0.0540315
0.0540315
0.0549732
0.0549732
0.0344395
0.0344395
0.055667
0.055667
0.0316838
0.0316838
0.0561138
0.0561138
0.0533784
0.0533784
0.0539885
0.0539885
0.0562287
0.0562287
0.0481642
0.0481642
0.0417049
0.0417049
0.0571735
0.0571735
0.0530521
0.0530521
0.123054
0.123054
0.0548162
0.0548162
0.0563445
0.0563445
0.0897498
0.0897498
0.0555639
0.0555639
0.2262
0.2262
0.2262
0.0520236
0.0520236
0.0550173
0.0550173
0.0562295
0.0562295
0.0495167
0.0495167
0.0495167
0.0479194
0.0479194
0.0569252
0.0569252
0.0512165
0.0512165
0.0401433
0.0401433
0.182485
0.182485
0.0298877
0.0298877
0.0543587
0.0543587
0.0438935
0.0438935
0.0345328
0.0345328
0.0400768
0.0400768
0.0345732
0.0345732
0.0313033
0.0313033
0.0572666
0.0572666
0.0550685
0.0550685
0.0424668
0.0424668
0.0525087
0.0525087
0.0540113
0.0540113
0.0568616
0.0568616
0.0562784
0.0562784
0.0547217
0.0547217
0.0566933
0.0566933
0.0567923
0.0567923
0.0538669
0.0538669
0.0373228
0.0373228
0.0585696
0.0585696
0.0306635
0.0306635
0.0156899
0.0156899
0.0372075
0.0372075
0.0394779
0.0394779
0.0725315
0.0725315
0.0515589
0.0515589
0.028412
0.028412
0.0306463
0.0306463
0.0569504
0.0569504
0.0548469
0.0548469
0.0443498
0.0443498
0.0539836
0.0539836
0.0549123
0.0549123
0.054994
0.054994
0.0558994
0.0558994
0.0484736
0.0484736
0.0738258
0.0738258
0.0738258
0.0548628
0.0548628
0.056443
0.056443
0.0158622
0.0158622
0.0302333
0.0302333
0.0476475
0.0476475
0.0387071
0.0387071
0.0546235
0.0546235
0.0569718
0.0569718
0.0566654
0.0566654
0.0266833
0.0266833
0.0542829
0.0542829
0.0508183
0.0508183
0.0103468
0.0103468
0.0243278
0.0243278
0.0531489
0.0531489
0.0387568
0.0387568
0.0353189
0.0353189
0.051624
0.051624
0.0701397
0.0701397
0.0701397
0.055876
0.055876
0.0501365
0.0501365
0.0539528
0.0539528
0.0542486
0.0542486
0.05609
0.05609
0.0167693
0.0167693
0.0490142
0.0490142
0.0569585
0.0569585
0.0337827
0.0337827
0.0329231
0.0329231
0.0498441
0.0498441
0.0563722
0.0563722
0.0548466
0.0548466
0.0452727
0.0452727
0.0202067
0.0202067
0.0570287
0.0570287
0.0544953
0.0544953
0.0568801
0.0568801
0.0572846
0.0572846
0.0285173
0.0285173
0.0516187
0.0516187
0.0556383
0.0556383
0.026782
0.026782
0.0545653
0.0545653
0.0428945
0.0428945
0.0569354
0.0569354
0.0569998
0.0569998
0.0456264
0.0456264
0.0488399
0.0488399
0.0560294
0.0560294
0.0548972
0.0548972
0.0545469
0.0545469
0.0539463
0.0539463
0.0326809
0.0326809
0.0537042
0.0537042
0.0548749
0.0548749
0.0563723
0.0563723
0.0552939
0.0552939
0.0562481
0.0562481
0.0415267
0.0415267
0.0289237
0.0289237
0.0580143
0.0580143
0.0397136
0.0397136
0.0520629
0.0520629
0.0524481
0.0524481
0.131154
0.131154
0.0532965
0.0532965
0.0512911
0.0512911
0.0559057
0.0559057
0.0566227
0.0566227
0.178142
0.178142
0.0955305
0.0955305
0.0498589
0.0498589
0.0304746
0.0304746
0.0390211
0.0390211
0.00761947
0.00761947
0.0545211
0.0545211
0.0566301
0.0566301
0.0170926
0.0170926
0.0536392
0.0536392
0.050492
0.050492
0.048914
0.048914
0.0546243
0.0546243
0.0574157
0.0574157
0.0558871
0.0558871
0.057453
0.057453
0.0504786
0.0504786
0.0551112
0.0551112
0.0561727
0.0561727
0.0477711
0.0477711
0.0572863
0.0572863
0.0574677
0.0574677
0.0472135
0.0472135
0.0529388
0.0529388
0.0317977
0.0317977
0.0511729
0.0511729
0.052592
0.052592
0.0589461
0.0589461
0.0527396
0.0527396
0.0526146
0.0526146
0.0370845
0.0370845
0.05669
0.05669
0.0572995
0.0572995
0.0551265
0.0551265
0.0466229
0.0466229
0.0309882
0.0309882
0.0547338
0.0547338
0.0530006
0.0530006
0.0559414
0.0559414
0.115145
0.115145
0.0552077
0.0552077
0.0561534
0.0561534
0.053363
0.053363
0.0552412
0.0552412
0.220096
0.220096
0.220096
0.0539373
0.0539373
0.0590836
0.0590836
0.0480818
0.0480818
0.0519708
0.0519708
0.0254714
0.0254714
0.0341031
0.0341031
0.0393184
0.0393184
0.0428281
0.0428281
0.061791
0.061791
0.061791
0.0544378
0.0544378
0.0452936
0.0452936
0.0530707
0.0530707
0.0569768
0.0569768
0.0543735
0.0543735
0.0533637
0.0533637
0.0550287
0.0550287
0.0545364
0.0545364
0.0554055
0.0554055
0.0543555
0.0543555
0.0539892
0.0539892
0.0431354
0.0431354
0.0495333
0.0495333
0.0451171
0.0451171
0.0459343
0.0459343
0.0487793
0.0487793
0.0507962
0.0507962
0.0442576
0.0442576
0.0336468
0.0336468
0.0572121
0.0572121
0.0477896
0.0477896
0.0447335
0.0447335
0.0274511
0.0274511
0.0580679
0.0580679
0.0540891
0.0540891
0.0543631
0.0543631
0.0420147
0.0420147
0.0549437
0.0549437
0.0529065
0.0529065
0.0550137
0.0550137
0.0539725
0.0539725
0.0467169
0.0467169
0.012905
0.012905
0.0549334
0.0549334
0.0579479
0.0579479
0.0551737
0.0551737
0.0531992
0.0531992
0.0570183
0.0570183
0.0193171
0.0193171
0.0504688
0.0504688
0.178028
0.178028
0.178028
0.0539317
0.0539317
0.0318294
0.0318294
0.0556512
0.0556512
0.0534119
0.0534119
0.0509199
0.0509199
0.057755
0.057755
0.0563322
0.0563322
0.0488875
0.0488875
0.0531975
0.0531975
0.0546991
0.0546991
0.0453993
0.0453993
0.0497284
0.0497284
0.0532725
0.0532725
0.0494906
0.0494906
0.0401659
0.0401659
0.0595486
0.0595486
0.0218835
0.0218835
0.0515668
0.0515668
0.0408239
0.0408239
0.0529485
0.0529485
0.0511665
0.0511665
0.0542346
0.0542346
0.0546402
0.0546402
0.0338132
0.0338132
0.054161
0.054161
0.0558165
0.0558165
0.0285407
0.0285407
0.0442712
0.0442712
0.0507073
0.0507073
0.0384032
0.0384032
0.0261961
0.0261961
0.0549007
0.0549007
0.0494672
0.0494672
0.0486587
0.0486587
0.0540293
0.0540293
0.0544264
0.0544264
0.0543305
0.0543305
0.050181
0.050181
0.0595704
0.0595704
0.0547648
0.0547648
0.0543074
0.0543074
0.0455333
0.0455333
0.0551683
0.0551683
0.0466447
0.0466447
0.0150375
0.0150375
0.0552581
0.0552581
0.0557155
0.0557155
0.0476585
0.0476585
0.0478114
0.0478114
0.0430334
0.0430334
0.0494612
0.0494612
0.053218
0.053218
0.0540634
0.0540634
0.0268505
0.0268505
0.0468706
0.0468706
0.0499281
0.0499281
0.0542668
0.0542668
0.0584141
0.0584141
0.0326901
0.0326901
0.0532607
0.0532607
0.0483491
0.0483491
0.0532687
0.0532687
0.0584506
0.0584506
0.045571
0.045571
0.0356313
0.0356313
0.041946
0.041946
0.0529722
0.0529722
0.0559348
0.0559348
0.0513671
0.0513671