/*--------------------------------*- C++ -*----------------------------------*\
  =========                 |
  \\      /  F ield         | OpenFOAM: The Open Source CFD Toolbox
   \\    /   O peration     | Website:  https://openfoam.org
    \\  /    A nd           | Version:  8
     \\/     M anipulation  |
\*---------------------------------------------------------------------------*/
FoamFile
{
    version     2.0;
    format      ascii;
    class       volScalarField;
    location    "0.7";
    object      k;
}
// * * * * * * * * * * * * * * * * * * * * * * * * * * * * * * * * * * * * * //

dimensions      [0 2 -2 0 0 0 0];

internalField   nonuniform List<scalar> 
1924
(
0.0217024
0.0254755
0.0339754
0.0336007
0.0274133
0.0345588
0.0341627
0.0349877
0.0346624
0.0326964
0.035158
0.0348225
0.0196554
0.0352726
0.0353655
0.0355269
0.0229222
0.034987
0.0197736
0.0352199
0.0151987
0.0369868
0.0264921
0.0348744
0.0372095
0.035845
0.0354923
0.0285437
0.0303768
0.0225075
0.0265769
0.0375084
0.0200815
0.0230943
0.029614
0.0276106
0.0372945
0.0310774
0.0216713
0.0256059
0.0368433
0.0162777
0.036707
0.0240996
0.02637
0.0297573
0.0218907
0.0281062
0.00998363
0.0117057
0.0163726
0.0193074
0.0361324
0.015677
0.0289276
0.0307762
0.0198569
0.0273701
0.027578
0.0359737
0.0237886
0.0357683
0.020052
0.0209109
0.016102
0.0289032
0.0360996
0.029421
0.0308269
0.0162393
0.0181677
0.0358407
0.0213727
0.0233241
0.0247515
0.0270741
0.0296764
0.0258262
0.0276645
0.0193895
0.0316726
0.035151
0.0246966
0.0160377
0.019274
0.0299379
0.0284385
0.0357723
0.0099733
0.016994
0.0361653
0.0351086
0.0304354
0.0341576
0.0197956
0.0164555
0.0304551
0.0321366
0.0356561
0.0243708
0.034915
0.018786
0.0356342
0.035204
0.0347963
0.0288467
0.0353838
0.0346812
0.0360497
0.0342545
0.0315292
0.0339759
0.0302479
0.0239665
0.0274821
0.0134603
0.0348309
0.0345863
0.0335681
0.029229
0.0163985
0.010444
0.0129089
0.0131238
0.0360364
0.0360675
0.0288278
0.0266739
0.0344303
0.0155252
0.0312213
0.0353842
0.0187975
0.0246292
0.0205004
0.0356545
0.0336031
0.0341502
0.0349393
0.0304692
0.029273
0.035972
0.0173554
0.0127301
0.0354026
0.0198311
0.0353144
0.022753
0.0359136
0.0339647
0.0235691
0.0103349
0.0282734
0.0359108
0.0352322
0.0364243
0.0105295
0.033726
0.0324025
0.0222115
0.0235412
0.0276862
0.0358153
0.0107204
0.0210726
0.0360324
0.0366285
0.0102996
0.0289725
0.0356048
0.0242644
0.0356961
0.0286137
0.0355521
0.0303173
0.0354368
0.022778
0.015401
0.0279468
0.0361705
0.0369286
0.0342614
0.0262095
0.0368532
0.00957526
0.0251727
0.0295594
0.0370696
0.0305921
0.0243757
0.0351697
0.0355162
0.0321934
0.0360342
0.0369794
0.0107205
0.036899
0.0357243
0.0365513
0.0352627
0.0142974
0.0264228
0.0362276
0.0358099
0.0269852
0.0370009
0.0362436
0.0287797
0.0255104
0.0164113
0.0112046
0.0356297
0.0350992
0.0370754
0.0369537
0.0276629
0.0359534
0.0356886
0.0360703
0.0264039
0.0363933
0.0249722
0.0365803
0.0353584
0.0356346
0.0366522
0.0330073
0.0299899
0.0370428
0.0352918
0.0184392
0.036034
0.0366989
0.0173092
0.0363603
0.0182938
0.034746
0.0360954
0.0366287
0.0111562
0.0329134
0.0369439
0.03438
0.0293338
0.023963
0.0240672
0.035802
0.0310226
0.0264455
0.0292057
0.0264754
0.0117629
0.0370898
0.0361226
0.0303509
0.0349589
0.0356553
0.0369141
0.0366638
0.0359674
0.036842
0.0368743
0.0356031
0.0278569
0.0376335
0.0244399
0.01565
0.0277969
0.0289599
0.0157814
0.0346211
0.0232206
0.0244632
0.036944
0.0360484
0.0312345
0.0356345
0.0360752
0.0360869
0.0365082
0.013174
0.0116139
0.0360579
0.0367278
0.0157481
0.0242005
0.0327741
0.0133283
0.0359316
0.0369613
0.0368148
0.0222916
0.0358052
0.0341977
0.0118488
0.0209297
0.0352502
0.0286347
0.0268493
0.0345614
0.0136731
0.0364707
0.0338905
0.0356447
0.0357569
0.0365669
0.0163558
0.0333786
0.0369536
0.0260582
0.0256827
0.0337861
0.0367018
0.0360256
0.0316781
0.0185254
0.0369898
0.0358749
0.0369108
0.0371007
0.0232958
0.0346407
0.036366
0.0223211
0.0358972
0.0305512
0.0369472
0.0369605
0.0318262
0.0333151
0.0365662
0.0360786
0.0358898
0.0356193
0.0254949
0.0355503
0.036059
0.0366857
0.0362296
0.0366298
0.0298985
0.0234961
0.037399
0.0290802
0.0347558
0.0349754
0.0184069
0.0353825
0.0344383
0.0364805
0.0367953
0.0226304
0.0196329
0.0337652
0.0243763
0.0286862
0.009657
0.0358928
0.0368106
0.0165567
0.0355192
0.0340462
0.0333321
0.0359644
0.0371405
0.036471
0.037152
0.0341094
0.0361525
0.0366029
0.0328129
0.0371047
0.0371621
0.0326051
0.0351889
0.00943652
0.034356
0.0350019
0.0377946
0.0351204
0.0350553
0.0277316
0.0368354
0.0371093
0.0361784
0.0322871
0.0246061
0.036012
0.0352159
0.0364936
0.0204148
0.036179
0.0366085
0.035426
0.0361983
0.0162181
0.0356265
0.0378538
0.032968
0.0347555
0.0215965
0.0262244
0.0288678
0.0305722
0.00831848
0.0358754
0.031675
0.035289
0.0369582
0.035819
0.0353997
0.0360974
0.0358952
0.0362618
0.035823
0.035659
0.0306597
0.0336156
0.0316219
0.0319794
0.0332738
0.0342494
0.031188
0.0260293
0.0370495
0.0328199
0.0314237
0.0227085
0.0374177
0.0356971
0.035849
0.0301241
0.036076
0.0351622
0.0360997
0.0356449
0.0323286
0.0137372
0.0360644
0.0373651
0.0361952
0.0353045
0.0369959
0.0179484
0.0341434
0.0140589
0.0356398
0.0250436
0.036383
0.0354479
0.0342405
0.0372793
0.0366904
0.0333381
0.0353043
0.0359672
0.0317203
0.0336875
0.0353163
0.0336812
0.0292351
0.0380525
0.0195313
0.0345599
0.0295835
0.0352426
0.0344672
0.0357713
0.0359417
0.0260717
0.0357252
0.0364395
0.0232954
0.0311918
0.0342025
0.028375
0.0220063
0.0360543
0.0336747
0.0332834
0.0356828
0.0358519
0.0358229
0.0340136
0.0380605
0.035987
0.0357948
0.031946
0.0361739
0.0323146
0.015214
0.0362126
0.0363872
0.0327689
0.032827
0.030608
0.0336711
0.0353497
0.0356876
0.0223572
0.032399
0.0337938
0.0357876
0.0375619
0.0255317
0.035337
0.0330546
0.0353369
0.0375789
0.0317995
0.0269969
0.0300868
0.0352464
0.0365231
0.0345536
0.0342338
0.0379323
0.0356666
0.0358887
0.0333764
0.0359044
0.033229
0.0293682
0.0312454
0.0361512
0.0353471
0.0235247
0.0247919
0.0353594
0.0358975
0.0354092
0.03597
0.037483
0.03023
0.0295679
0.0334196
0.0358316
0.0343803
0.0225368
0.0361436
0.0382835
0.0216791
0.0208026
0.0257912
0.0305755
0.0362844
0.0228087
0.0205246
0.0329689
0.0329678
0.036291
0.0353849
0.0330549
0.0368566
0.0357564
0.0309407
0.027049
0.0172678
0.0214431
0.0220546
0.0367217
0.0362376
0.0305026
0.0352301
0.0359178
0.0313877
0.0286341
0.0328956
0.0230635
0.0382411
0.0300076
0.0360522
0.0356126
0.0345985
0.0239005
0.0337491
0.0289579
0.0271435
0.03191
0.0326263
0.0381832
0.0326101
0.0359271
0.0342989
0.0164583
0.0239018
0.0323329
0.03458
0.0293099
0.0229242
0.0354314
0.0370322
0.0140947
0.01764
0.0199014
0.0314041
0.0332427
0.030812
0.0328478
0.0357796
0.0164925
0.0325375
0.0358599
0.0207284
0.0378219
0.0359651
0.0351482
0.0274594
0.0318013
0.035064
0.0357008
0.0325899
0.0298533
0.0320094
0.0384313
0.03249
0.035977
0.0302288
0.0167393
0.0199426
0.0306694
0.0286252
0.0336198
0.0372283
0.0359756
0.0227837
0.0279161
0.03255
0.0352078
0.0314857
0.032421
0.0363213
0.0305415
0.0353314
0.0378363
0.0165997
0.036268
0.0198423
0.0361694
0.0300371
0.0353642
0.0347348
0.0384271
0.0356348
0.0352875
0.0321437
0.0381067
0.0320962
0.0360918
0.0359087
0.0370305
0.0344323
0.0327911
0.0357722
0.0291516
0.0339093
0.0366821
0.0264106
0.0355163
0.0322807
0.0323295
0.0249458
0.0228727
0.0292745
0.0335592
0.0206897
0.0361333
0.0324128
0.0375939
0.03836
0.0384723
0.027585
0.0159853
0.0324582
0.0321166
0.0285839
0.0360863
0.032298
0.0214064
0.0306332
0.0314725
0.0317594
0.0327218
0.0328644
0.0370944
0.0360397
0.0332468
0.0209738
0.0308654
0.0271526
0.0223294
0.0362146
0.033488
0.0362384
0.0373345
0.031648
0.0313415
0.0244168
0.0384099
0.0381681
0.027542
0.0357691
0.0362338
0.0268864
0.0188256
0.036186
0.0350038
0.0361105
0.0302055
0.0381414
0.0378753
0.0244923
0.034697
0.0217877
0.0355528
0.0352206
0.0341564
0.036728
0.031544
0.0129489
0.0232618
0.0334111
0.0267202
0.0299775
0.0323384
0.00838728
0.0106684
0.0181079
0.0305608
0.0293758
0.0338021
0.0328221
0.0205042
0.0381671
0.0328473
0.0358712
0.0330767
0.0357999
0.0332797
0.0362622
0.021555
0.0335935
0.0267745
0.013517
0.0341793
0.0150721
0.0383354
0.0307934
0.038296
0.0286538
0.0373918
0.0349988
0.0361285
0.0192835
0.0195054
0.0357007
0.0206893
0.0192556
0.0216824
0.0333671
0.0205926
0.0335031
0.0339248
0.02756
0.0379247
0.0321152
0.0360144
0.0379874
0.028197
0.0362117
0.0339823
0.0361962
0.0223573
0.0345155
0.0279062
0.0308603
0.0383191
0.0358498
0.0298667
0.0349964
0.0355807
0.0248297
0.0362969
0.03194
0.0352665
0.0199985
0.0323691
0.0359173
0.0309092
0.0211939
0.0328799
0.0373494
0.0310147
0.034139
0.0375227
0.0267848
0.0303779
0.0149723
0.0357937
0.0379588
0.0187065
0.0313543
0.0361746
0.0201952
0.0249946
0.0312003
0.0195749
0.0339156
0.0338317
0.0378055
0.0202809
0.0295855
0.0223515
0.0142812
0.0382878
0.0318574
0.034697
0.0255057
0.0371712
0.0339296
0.0364468
0.0357629
0.0305295
0.0276518
0.0335562
0.0288798
0.0371783
0.0333171
0.0338013
0.0325889
0.0348084
0.0250038
0.0383817
0.0361309
0.0374323
0.0360475
0.0237158
0.0349275
0.027689
0.00784757
0.0338816
0.015192
0.0359865
0.0358618
0.0102621
0.0373053
0.0358906
0.0369556
0.0358385
0.0380566
0.0362474
0.0339629
0.0308292
0.0240334
0.034587
0.0347886
0.0368738
0.0381326
0.0226665
0.0204982
0.0348269
0.031188
0.0344723
0.0202355
0.0357062
0.0341108
0.0251179
0.0361121
0.0319703
0.0336351
0.0269599
0.0384717
0.0352584
0.0362692
0.0375472
0.0199979
0.0241491
0.0351382
0.00713264
0.0354764
0.0190249
0.0385109
0.0360177
0.0193687
0.034807
0.0368968
0.0339621
0.0343399
0.0344748
0.0340508
0.0370239
0.025069
0.0120436
0.0351749
0.0301645
0.0301946
0.0296548
0.0374674
0.0360948
0.0347367
0.0334658
0.0189049
0.0382094
0.0202259
0.0360065
0.0367196
0.0299873
0.0281147
0.0359252
0.0301602
0.0359796
0.0196466
0.0291397
0.0149498
0.0224768
0.0340705
0.0296834
0.0359085
0.0376398
0.0208451
0.0195045
0.0354254
0.0367622
0.0227087
0.0279225
0.0339937
0.0242061
0.0357738
0.036147
0.0355817
0.0371762
0.0375736
0.0360767
0.0376759
0.0343184
0.0279731
0.0362685
0.0383749
0.0354007
0.0343956
0.0210571
0.0119052
0.0272148
0.0151757
0.0166031
0.0346708
0.0369707
0.0341267
0.0327672
0.0394644
0.0369996
0.0364152
0.016296
0.0388033
0.0356512
0.0105155
0.0353886
0.00706792
0.033473
0.0378402
0.0229406
0.0254132
0.0387452
0.0356122
0.025427
0.0340402
0.0320794
0.0365166
0.0359538
0.027027
0.0211386
0.0384178
0.0196976
0.0359909
0.0356263
0.018567
0.034429
0.0356786
0.0350261
0.0317931
0.0392194
0.0354949
0.0362809
0.0380063
0.035912
0.0354321
0.0369153
0.0181084
0.0173193
0.0383861
0.0357763
0.0341769
0.0244285
0.0378552
0.0389713
0.0200571
0.0376562
0.0369161
0.0371176
0.034487
0.0359967
0.0302914
0.0373334
0.038649
0.0389778
0.0294771
0.0402389
0.0338646
0.0292277
0.0190988
0.0380107
0.0320163
0.0401269
0.0343848
0.0291156
0.0280935
0.034165
0.0350647
0.0387128
0.0363212
0.029238
0.0379288
0.0293481
0.00804159
0.0202581
0.0212286
0.0340364
0.0384808
0.0347867
0.0253901
0.0218086
0.019887
0.0366949
0.0275232
0.0361886
0.0223397
0.0240392
0.0386171
0.0344352
0.0221332
0.0368094
0.0352492
0.0406366
0.0355143
0.0362667
0.0407318
0.0359878
0.0256435
0.0356627
0.035898
0.0340201
0.0387879
0.0302442
0.033711
0.0382898
0.0311125
0.0355569
0.0359494
0.0333833
0.0353281
0.0384893
0.0352274
0.0356539
0.0391698
0.0172468
0.0343749
0.0203852
0.0392059
0.0362019
0.0249677
0.0271582
0.0419851
0.0288061
0.0387796
0.039311
0.0349111
0.0342448
0.0187607
0.039976
0.0392507
0.0365349
0.0127779
0.0339143
0.0394067
0.0120927
0.0347211
0.0378313
0.0215536
0.0341329
0.0421982
0.034225
0.0397842
0.0383802
0.0125069
0.0129954
0.038246
0.0338035
0.0418167
0.0314419
0.0344404
0.0320399
0.0388299
0.0400388
0.0368371
0.0126984
0.0359586
0.0163327
0.0359183
0.0355947
0.038064
0.0360251
0.0329974
0.0372212
0.013077
0.0135938
0.035741
0.0350451
0.0387146
0.0282926
0.0393532
0.0361914
0.0352603
0.0344868
0.0418136
0.02852
0.0279234
0.0328399
0.0338976
0.0396551
0.0125426
0.0205958
0.0404042
0.0366173
0.0427192
0.0397371
0.0381292
0.0363841
0.0276563
0.0259156
0.0250942
0.0398947
0.0415304
0.0142704
0.0236253
0.0341875
0.0399907
0.0136643
0.0378812
0.0401202
0.0129491
0.00613599
0.0339574
0.0252519
0.043111
0.039851
0.0415487
0.0289555
0.0344564
0.0352963
0.0231804
0.033808
0.0346178
0.0151867
0.0140554
0.0384207
0.0100273
0.02893
0.0336155
0.0223585
0.0401744
0.0306133
0.0374742
0.0359708
0.0303673
0.0357761
0.0389991
0.0335639
0.0156867
0.0250886
0.0380334
0.0371502
0.0345281
0.0427662
0.0369095
0.0339905
0.0370612
0.0179125
0.0395723
0.0358054
0.0362354
0.0142989
0.0382807
0.035994
0.0140423
0.0123102
0.0414056
0.0198671
0.0363296
0.0390934
0.0332305
0.0356386
0.0431798
0.0335387
0.0359448
0.0343251
0.0396389
0.0374296
0.0215395
0.0211121
0.0406295
0.0400358
0.0395917
0.0329364
0.0425205
0.0324879
0.0218912
0.0422126
0.0399109
0.0272357
0.00505491
0.00612936
0.0351825
0.0379216
0.0402507
0.0235465
0.0436526
0.0337863
0.0331421
0.016222
0.0144551
0.0273515
0.0389558
0.0347699
0.0277111
0.0412444
0.0401249
0.0419317
0.0352455
0.0345361
0.0359657
0.0353746
0.0390472
0.0337607
0.0263688
0.0248467
0.0431892
0.0402588
0.0333978
0.0372268
0.0109083
0.0337106
0.0384564
0.0394711
0.0392921
0.0365292
0.0124929
0.0259891
0.0183983
0.014958
0.0333059
0.0378128
0.0398193
0.014444
0.019381
0.0393696
0.0325399
0.0337957
0.0401481
0.0350635
0.0280518
0.0362447
0.0255469
0.0303543
0.0328507
0.0224502
0.037061
0.0430097
0.036323
0.0346068
0.0312569
0.0158075
0.0352076
0.0396189
0.0175766
0.0381887
0.0146704
0.035839
0.0426826
0.0333611
0.0374259
0.0383511
0.0402713
0.0368371
0.0199584
0.0338964
0.0324035
0.04052
0.0425048
0.0343458
0.0400756
0.0123428
0.0355913
0.0382716
0.0192911
0.0431152
0.0371979
0.0220404
0.0354669
0.0119709
0.0342799
0.0411765
0.0294737
0.0120625
0.01309
0.038738
0.0265698
0.0266346
0.0310884
0.0385913
0.0334542
0.0152624
0.0399388
0.0361587
0.0374543
0.0402088
0.0336258
0.0123879
0.0389526
0.026311
0.0326736
0.0343917
0.0440203
0.033554
0.0334522
0.0347106
0.0338346
0.0256642
0.0331093
0.0436404
0.0125186
0.0131516
0.0229206
0.0343786
0.038239
0.0157466
0.0332273
0.0363864
0.0142663
0.034559
0.0397607
0.0407892
0.0319514
0.0153469
0.0136336
0.0378759
0.0415662
0.0151026
0.00523749
0.00710435
0.0274631
0.0207222
0.0379924
0.0261618
0.0367559
0.042821
0.0362849
0.0354859
0.0426846
0.0332872
0.0108241
0.0343143
0.0117127
0.0123037
0.0433934
0.0413729
0.0185764
0.0140114
0.0361835
0.0310462
0.0370134
0.0287258
0.0296227
0.0302375
0.0341343
0.0181121
0.0206146
0.0160169
0.0322428
0.0417769
0.0132335
0.0356107
0.0376646
0.0105515
0.0338549
0.0379678
0.0349907
0.0255519
0.00831814
0.0358886
0.0399873
0.0135117
0.0379457
0.0384148
0.0128364
0.0142484
0.0366367
0.0353315
0.030776
0.0343864
0.03561
0.0389029
0.0381091
0.0400511
0.0340105
0.034388
0.0334504
0.0278986
0.0394848
0.014639
0.0358609
0.0249009
0.0340551
0.0313146
0.0328884
0.016138
0.0181029
0.0372505
0.0356554
0.0284753
0.0334234
0.0394505
0.0356297
0.0295811
0.0388555
0.0350522
0.0144556
0.0251149
0.0418978
0.027663
0.0415591
0.0227736
0.0385469
0.0405983
0.0417253
0.0340448
0.0275228
0.034976
0.0364471
0.0271192
0.0370908
0.0435716
0.0153136
0.0386554
0.0259332
0.0428902
0.0378438
0.0397584
0.0360214
0.036643
0.0264599
0.0340009
0.039687
0.039172
0.0354322
0.0107725
0.0352882
0.0221122
0.0361782
0.0442136
0.0338602
0.0403414
0.0185793
0.0430966
0.0162655
0.0440134
0.0277252
0.0370765
0.0104783
0.0414533
0.0417103
0.0147871
0.0372471
0.0128976
0.0348188
0.0404647
0.0161995
0.0188255
0.0165414
0.0119757
0.0340394
0.0262652
0.0305273
0.0179833
0.0243032
0.0239691
0.0251483
0.0380566
0.0268687
0.034255
0.0356838
0.039875
0.0345515
0.0376518
0.0277394
0.0228681
0.0383886
0.0350842
0.0359486
0.022576
0.0361874
0.0151948
0.0275844
0.041397
0.00963242
0.0286537
0.0383103
0.0303357
0.0349044
0.0424412
0.0323067
0.0385651
0.0421034
0.0339284
0.0347619
0.021864
0.0239106
0.0351486
0.0361074
0.0363215
0.0346215
0.0351694
0.0422232
0.0391455
0.0352131
0.0411203
0.022839
0.00742446
0.00882958
0.0368878
0.036952
0.0416961
0.0378232
0.0429461
0.0355216
0.0117581
0.0417554
0.0360062
0.0372882
0.0422336
0.0226475
0.0298355
0.0141805
0.0375411
0.0439593
0.0390953
0.0173702
0.0220973
0.0353231
0.0372413
0.0236199
0.0361185
0.0270046
0.0265066
0.0412681
0.0386206
0.0258382
0.0434778
0.0388511
0.0356396
0.039482
0.0096223
0.0423133
0.0419805
0.0425507
0.0301522
0.0224651
0.0437578
0.0379034
0.0380589
0.040758
0.0213421
0.0366802
0.0444074
0.0357736
0.0246578
0.0427439
0.0210668
0.0373512
0.0213118
0.0269291
0.0381679
0.0445928
0.0236345
0.0080454
0.0091387
0.023747
0.035969
0.0372954
0.0411332
0.0421333
0.0417542
0.00839275
0.0190015
0.0158687
0.0379273
0.0446027
0.0433832
0.0365425
0.0284635
0.0407917
0.0450873
0.0370374
0.0155323
0.0157346
0.022431
0.023368
0.0422562
0.0161005
0.0360557
0.0325001
0.0390527
0.0431111
0.0422256
0.042482
0.0132471
0.0438034
0.038725
0.0218934
0.0358901
0.0436316
0.0180377
0.0443146
0.0412063
0.0415721
0.0418074
0.0364786
0.0424894
0.0430352
0.0443879
0.0351661
0.0422508
0.0159321
0.0367571
0.0428023
0.0381504
0.0405201
0.00705667
0.0375101
0.0421861
0.0379295
0.0161766
0.0391836
0.0401033
0.0199615
0.0192682
0.0445461
0.0127156
0.0421654
0.0412972
0.0241734
0.0306695
0.0409335
0.0421272
0.0447253
0.0254949
0.0445346
0.0367124
0.0332392
0.0368009
0.0205184
0.0100483
0.00685057
0.0403477
0.0379419
0.020575
0.0261005
0.0323709
0.0433132
0.0429261
0.0445317
0.0439004
0.0429878
0.042384
0.0393596
0.039201
0.0406958
0.0386477
0.0368046
0.0391503
0.0161635
0.0160398
0.0393404
0.0155137
0.043621
0.0426402
0.0407571
0.0266536
0.0385633
0.0417618
0.038955
0.00802199
0.00567613
0.0442962
0.0408534
0.0263241
0.0462804
0.045905
0.0446086
0.0349731
0.0424073
0.0288588
0.0395021
0.0208776
0.0373415
0.0423228
0.0155868
0.0388907
0.0161054
0.0393847
0.0433147
0.020005
0.0436266
0.0434995
0.0434097
0.0368849
0.016164
0.0422872
0.0149168
0.039316
0.0435663
0.0429805
0.0420044
0.0403894
0.040435
0.0409086
0.0408795
0.0453557
0.0179541
0.0446515
0.0426287
0.0416396
0.038578
0.0196694
0.0147922
0.0483274
0.0475169
0.0484451
0.043727
0.0142843
0.0438565
0.0423346
0.0217675
0.0390356
0.0283299
0.0392358
0.0136375
0.0422088
0.0421235
0.0415992
0.0345975
0.026649
0.0391562
0.0450991
0.031559
0.0393118
0.0117914
0.0132592
0.0402755
0.0159993
0.0136266
0.00948283
0.00920633
0.0176475
0.0306645
0.00441208
0.00480679
0.00398338
0.00296154
0.00707732
0.00594151
0.0415636
0.0415688
0.0437945
0.0412049
0.0412021
0.0403581
0.0421398
0.0420153
0.0397845
0.0398857
0.0251768
0.0149812
0.0471348
0.0118787
0.0144382
0.0337532
0.0445999
0.00704419
0.0424787
0.0427571
0.0429049
0.042976
0.0425862
0.042677
0.0476486
0.0209007
0.0267497
0.0358145
0.0449696
0.039492
0.0187277
0.0173526
0.022877
0.0174945
0.0214311
0.0158683
0.0240403
0.0346721
0.0163958
0.0245599
0.0180574
0.00863545
0.0281934
0.0227112
0.0108389
0.014941
0.0103066
0.034938
0.00971056
0.0234184
0.034524
0.0121028
0.0130263
0.0322802
0.0237302
0.012578
0.0130057
0.00954898
0.00691147
0.0123876
0.00666003
0.00811606
0.00745213
0.0213929
0.0163094
0.0215191
0.00537953
0.00326232
0.00393251
0.0168381
0.0318549
0.0347725
0.00555393
0.00700125
0.00630796
0.0224449
0.0233337
0.0153801
0.0162453
0.0283718
0.0122404
0.00948541
0.00827237
0.00559912
0.0117932
0.00752076
0.0123064
0.00863635
0.00781285
0.00795691
0.00442037
0.00453853
0.0207428
0.0318302
0.00930746
0.0296497
0.00779122
0.00670773
0.0080503
0.00910283
0.0120822
0.00669908
0.0315483
0.00943348
0.0137007
0.0140212
0.00391243
0.011852
0.0104866
0.00973083
0.00670091
0.0321104
0.0110728
0.0317436
0.0129542
0.0101268
0.0336362
0.00934695
0.00798648
0.00624035
0.0151255
0.0318523
0.0345775
0.00934046
0.00950762
0.00541007
0.0324912
0.0324978
0.0102979
0.0326262
0.0327411
0.00760281
0.0331503
0.0330827
0.015315
0.033691
0.0156967
0.012663
0.0119802
0.0053015
0.0332659
0.00745862
0.00686404
0.0340496
)
;

boundaryField
{
    patch0
    {
        type            kqRWallFunction;
        value           nonuniform List<scalar> 
4010
(
0.0217024
0.0217024
0.0254755
0.0254755
0.0339754
0.0339754
0.0336007
0.0336007
0.0274133
0.0274133
0.0345588
0.0345588
0.0341627
0.0341627
0.0349877
0.0349877
0.0346624
0.0346624
0.0326964
0.0326964
0.035158
0.035158
0.0348225
0.0348225
0.0196554
0.0196554
0.0352726
0.0352726
0.0353655
0.0353655
0.0355269
0.0355269
0.0229222
0.0229222
0.034987
0.034987
0.0197736
0.0197736
0.0352199
0.0352199
0.0151987
0.0151987
0.0369868
0.0369868
0.0264921
0.0264921
0.0348744
0.0348744
0.0372095
0.0372095
0.035845
0.035845
0.0354923
0.0354923
0.0285437
0.0285437
0.0303768
0.0303768
0.0225075
0.0225075
0.0265769
0.0265769
0.0375084
0.0375084
0.0200815
0.0200815
0.0230943
0.0230943
0.029614
0.029614
0.0276106
0.0276106
0.0372945
0.0372945
0.0310774
0.0310774
0.0216713
0.0216713
0.0256059
0.0256059
0.0368433
0.0368433
0.0162777
0.0162777
0.036707
0.036707
0.0240996
0.0240996
0.02637
0.02637
0.0297573
0.0297573
0.0218907
0.0218907
0.0281062
0.0281062
0.00998363
0.00998363
0.0117057
0.0117057
0.0163726
0.0163726
0.0193074
0.0193074
0.0361324
0.0361324
0.015677
0.015677
0.0289276
0.0289276
0.0307762
0.0307762
0.0198569
0.0198569
0.0273701
0.0273701
0.027578
0.027578
0.0359737
0.0359737
0.0237886
0.0237886
0.0357683
0.0357683
0.020052
0.020052
0.0209109
0.0209109
0.016102
0.016102
0.0289032
0.0289032
0.0360996
0.0360996
0.029421
0.029421
0.0308269
0.0308269
0.0162393
0.0162393
0.0181677
0.0181677
0.0358407
0.0358407
0.0213727
0.0213727
0.0233241
0.0233241
0.0247515
0.0247515
0.0270741
0.0270741
0.0296764
0.0296764
0.0258262
0.0258262
0.0276645
0.0276645
0.0193895
0.0193895
0.0316726
0.0316726
0.035151
0.035151
0.0246966
0.0246966
0.0160377
0.0160377
0.019274
0.019274
0.0299379
0.0299379
0.0284385
0.0284385
0.0357723
0.0357723
0.0099733
0.0099733
0.016994
0.016994
0.0361653
0.0361653
0.0351086
0.0351086
0.0304354
0.0304354
0.0341576
0.0341576
0.0197956
0.0197956
0.0164555
0.0164555
0.0304551
0.0304551
0.0321366
0.0321366
0.0356561
0.0356561
0.0243708
0.0243708
0.034915
0.034915
0.018786
0.018786
0.0356342
0.0356342
0.035204
0.035204
0.0347963
0.0347963
0.0288467
0.0288467
0.0353838
0.0353838
0.0346812
0.0346812
0.0360497
0.0360497
0.0342545
0.0342545
0.0315292
0.0315292
0.0339759
0.0339759
0.0302479
0.0302479
0.0239665
0.0239665
0.0274821
0.0274821
0.0134603
0.0134603
0.0348309
0.0348309
0.0345863
0.0345863
0.0335681
0.0335681
0.029229
0.029229
0.0163985
0.0163985
0.010444
0.010444
0.0129089
0.0129089
0.0131238
0.0131238
0.0360364
0.0360364
0.0360675
0.0360675
0.0288278
0.0288278
0.0266739
0.0266739
0.0344303
0.0344303
0.0155252
0.0155252
0.0312213
0.0312213
0.0353842
0.0353842
0.0187975
0.0187975
0.0246292
0.0246292
0.0205004
0.0205004
0.0356545
0.0356545
0.0336031
0.0336031
0.0341502
0.0341502
0.0349393
0.0349393
0.0304692
0.0304692
0.029273
0.029273
0.035972
0.035972
0.0173554
0.0173554
0.0173554
0.0127301
0.0127301
0.0127301
0.0354026
0.0354026
0.0198311
0.0198311
0.0353144
0.0353144
0.022753
0.022753
0.0359136
0.0359136
0.0339647
0.0339647
0.0235691
0.0235691
0.0103349
0.0103349
0.0103349
0.0282734
0.0282734
0.0359108
0.0359108
0.0352322
0.0352322
0.0364243
0.0364243
0.0105295
0.0105295
0.033726
0.033726
0.0324025
0.0324025
0.0222115
0.0222115
0.0235412
0.0235412
0.0276862
0.0276862
0.0358153
0.0358153
0.0107204
0.0107204
0.0210726
0.0210726
0.0360324
0.0360324
0.0366285
0.0366285
0.0102996
0.0102996
0.0289725
0.0289725
0.0356048
0.0356048
0.0242644
0.0242644
0.0356961
0.0356961
0.0286137
0.0286137
0.0355521
0.0355521
0.0303173
0.0303173
0.0354368
0.0354368
0.022778
0.022778
0.015401
0.015401
0.0279468
0.0279468
0.0361705
0.0361705
0.0369286
0.0369286
0.0342614
0.0342614
0.0262095
0.0262095
0.0368532
0.0368532
0.00957526
0.00957526
0.0251727
0.0251727
0.0295594
0.0295594
0.0370696
0.0370696
0.0305921
0.0305921
0.0243757
0.0243757
0.0351697
0.0351697
0.0355162
0.0355162
0.0321934
0.0321934
0.0360342
0.0360342
0.0369794
0.0369794
0.0107205
0.0107205
0.0107205
0.036899
0.036899
0.0357243
0.0357243
0.0365513
0.0365513
0.0352627
0.0352627
0.0142974
0.0142974
0.0264228
0.0264228
0.0362276
0.0362276
0.0358099
0.0358099
0.0269852
0.0269852
0.0370009
0.0370009
0.0362436
0.0362436
0.0287797
0.0287797
0.0255104
0.0255104
0.0164113
0.0164113
0.0164113
0.0112046
0.0112046
0.0356297
0.0356297
0.0350992
0.0350992
0.0370754
0.0370754
0.0369537
0.0369537
0.0276629
0.0276629
0.0359534
0.0359534
0.0356886
0.0356886
0.0360703
0.0360703
0.0264039
0.0264039
0.0363933
0.0363933
0.0249722
0.0249722
0.0365803
0.0365803
0.0353584
0.0353584
0.0356346
0.0356346
0.0366522
0.0366522
0.0330073
0.0330073
0.0299899
0.0299899
0.0370428
0.0370428
0.0352918
0.0352918
0.0184392
0.0184392
0.036034
0.036034
0.0366989
0.0366989
0.0173092
0.0173092
0.0363603
0.0363603
0.0182938
0.0182938
0.0182938
0.034746
0.034746
0.0360954
0.0360954
0.0366287
0.0366287
0.0111562
0.0111562
0.0111562
0.0329134
0.0329134
0.0369439
0.0369439
0.03438
0.03438
0.0293338
0.0293338
0.023963
0.023963
0.0240672
0.0240672
0.035802
0.035802
0.0310226
0.0310226
0.0264455
0.0264455
0.0292057
0.0292057
0.0264754
0.0264754
0.0117629
0.0117629
0.0370898
0.0370898
0.0361226
0.0361226
0.0303509
0.0303509
0.0349589
0.0349589
0.0356553
0.0356553
0.0369141
0.0369141
0.0366638
0.0366638
0.0359674
0.0359674
0.036842
0.036842
0.0368743
0.0368743
0.0356031
0.0356031
0.0278569
0.0278569
0.0376335
0.0376335
0.0244399
0.0244399
0.01565
0.01565
0.0277969
0.0277969
0.0289599
0.0289599
0.0157814
0.0157814
0.0346211
0.0346211
0.0232206
0.0232206
0.0244632
0.0244632
0.036944
0.036944
0.0360484
0.0360484
0.0312345
0.0312345
0.0356345
0.0356345
0.0360752
0.0360752
0.0360869
0.0360869
0.0365082
0.0365082
0.013174
0.013174
0.0116139
0.0116139
0.0116139
0.0360579
0.0360579
0.0367278
0.0367278
0.0157481
0.0157481
0.0242005
0.0242005
0.0327741
0.0327741
0.0133283
0.0133283
0.0359316
0.0359316
0.0369613
0.0369613
0.0368148
0.0368148
0.0222916
0.0222916
0.0358052
0.0358052
0.0341977
0.0341977
0.0118488
0.0118488
0.0209297
0.0209297
0.0352502
0.0352502
0.0286347
0.0286347
0.0268493
0.0268493
0.0345614
0.0345614
0.0136731
0.0136731
0.0136731
0.0364707
0.0364707
0.0338905
0.0338905
0.0356447
0.0356447
0.0357569
0.0357569
0.0365669
0.0365669
0.0163558
0.0163558
0.0333786
0.0333786
0.0369536
0.0369536
0.0260582
0.0260582
0.0256827
0.0256827
0.0337861
0.0337861
0.0367018
0.0367018
0.0360256
0.0360256
0.0316781
0.0316781
0.0185254
0.0185254
0.0369898
0.0369898
0.0358749
0.0358749
0.0369108
0.0369108
0.0371007
0.0371007
0.0232958
0.0232958
0.0346407
0.0346407
0.036366
0.036366
0.0223211
0.0223211
0.0358972
0.0358972
0.0305512
0.0305512
0.0369472
0.0369472
0.0369605
0.0369605
0.0318262
0.0318262
0.0333151
0.0333151
0.0365662
0.0365662
0.0360786
0.0360786
0.0358898
0.0358898
0.0356193
0.0356193
0.0254949
0.0254949
0.0355503
0.0355503
0.036059
0.036059
0.0366857
0.0366857
0.0362296
0.0362296
0.0366298
0.0366298
0.0298985
0.0298985
0.0234961
0.0234961
0.037399
0.037399
0.0290802
0.0290802
0.0347558
0.0347558
0.0349754
0.0349754
0.0184069
0.0184069
0.0353825
0.0353825
0.0344383
0.0344383
0.0364805
0.0364805
0.0367953
0.0367953
0.0226304
0.0226304
0.0196329
0.0196329
0.0337652
0.0337652
0.0243763
0.0243763
0.0286862
0.0286862
0.009657
0.009657
0.0358928
0.0358928
0.0368106
0.0368106
0.0165567
0.0165567
0.0355192
0.0355192
0.0340462
0.0340462
0.0333321
0.0333321
0.0359644
0.0359644
0.0371405
0.0371405
0.036471
0.036471
0.037152
0.037152
0.0341094
0.0341094
0.0361525
0.0361525
0.0366029
0.0366029
0.0328129
0.0328129
0.0371047
0.0371047
0.0371621
0.0371621
0.0326051
0.0326051
0.0351889
0.0351889
0.00943652
0.00943652
0.034356
0.034356
0.0350019
0.0350019
0.0377946
0.0377946
0.0351204
0.0351204
0.0350553
0.0350553
0.0277316
0.0277316
0.0368354
0.0368354
0.0371093
0.0371093
0.0361784
0.0361784
0.0322871
0.0322871
0.0246061
0.0246061
0.036012
0.036012
0.0352159
0.0352159
0.0364936
0.0364936
0.0204148
0.0204148
0.036179
0.036179
0.0366085
0.0366085
0.035426
0.035426
0.0361983
0.0361983
0.0162181
0.0162181
0.0162181
0.0356265
0.0356265
0.0378538
0.0378538
0.032968
0.032968
0.0347555
0.0347555
0.0215965
0.0215965
0.0262244
0.0262244
0.0288678
0.0288678
0.0305722
0.0305722
0.00831848
0.00831848
0.00831848
0.0358754
0.0358754
0.031675
0.031675
0.035289
0.035289
0.0369582
0.0369582
0.035819
0.035819
0.0353997
0.0353997
0.0360974
0.0360974
0.0358952
0.0358952
0.0362618
0.0362618
0.035823
0.035823
0.035659
0.035659
0.0306597
0.0306597
0.0336156
0.0336156
0.0316219
0.0316219
0.0319794
0.0319794
0.0332738
0.0332738
0.0342494
0.0342494
0.031188
0.031188
0.0260293
0.0260293
0.0370495
0.0370495
0.0328199
0.0328199
0.0314237
0.0314237
0.0227085
0.0227085
0.0374177
0.0374177
0.0356971
0.0356971
0.035849
0.035849
0.0301241
0.0301241
0.036076
0.036076
0.0351622
0.0351622
0.0360997
0.0360997
0.0356449
0.0356449
0.0323286
0.0323286
0.0137372
0.0137372
0.0360644
0.0360644
0.0373651
0.0373651
0.0361952
0.0361952
0.0353045
0.0353045
0.0369959
0.0369959
0.0179484
0.0179484
0.0341434
0.0341434
0.0140589
0.0140589
0.0140589
0.0356398
0.0356398
0.0250436
0.0250436
0.036383
0.036383
0.0354479
0.0354479
0.0342405
0.0342405
0.0372793
0.0372793
0.0366904
0.0366904
0.0333381
0.0333381
0.0353043
0.0353043
0.0359672
0.0359672
0.0317203
0.0317203
0.0336875
0.0336875
0.0353163
0.0353163
0.0336812
0.0336812
0.0292351
0.0292351
0.0380525
0.0380525
0.0195313
0.0195313
0.0345599
0.0345599
0.0295835
0.0295835
0.0352426
0.0352426
0.0344672
0.0344672
0.0357713
0.0357713
0.0359417
0.0359417
0.0260717
0.0260717
0.0357252
0.0357252
0.0364395
0.0364395
0.0232954
0.0232954
0.0311918
0.0311918
0.0342025
0.0342025
0.028375
0.028375
0.0220063
0.0220063
0.0360543
0.0360543
0.0336747
0.0336747
0.0332834
0.0332834
0.0356828
0.0356828
0.0358519
0.0358519
0.0358229
0.0358229
0.0340136
0.0340136
0.0380605
0.0380605
0.035987
0.035987
0.0357948
0.0357948
0.031946
0.031946
0.0361739
0.0361739
0.0323146
0.0323146
0.015214
0.015214
0.0362126
0.0362126
0.0363872
0.0363872
0.0327689
0.0327689
0.032827
0.032827
0.030608
0.030608
0.0336711
0.0336711
0.0353497
0.0353497
0.0356876
0.0356876
0.0223572
0.0223572
0.032399
0.032399
0.0337938
0.0337938
0.0357876
0.0357876
0.0375619
0.0375619