/*--------------------------------*- C++ -*----------------------------------*\
  =========                 |
  \\      /  F ield         | OpenFOAM: The Open Source CFD Toolbox
   \\    /   O peration     | Website:  https://openfoam.org
    \\  /    A nd           | Version:  8
     \\/     M anipulation  |
\*---------------------------------------------------------------------------*/
FoamFile
{
    version     2.0;
    format      ascii;
    class       volScalarField;
    location    "0.7";
    object      nut;
}
// * * * * * * * * * * * * * * * * * * * * * * * * * * * * * * * * * * * * * //

dimensions      [0 2 -1 0 0 0 0];

internalField   nonuniform List<scalar> 
1924
(
0.00165298
0.00179143
0.00206569
0.00205274
0.00185877
0.00208349
0.00207067
0.0020968
0.00208647
0.00202636
0.00210211
0.00209142
0.00157466
0.00210563
0.00210794
0.00211426
0.00170121
0.00209647
0.00157779
0.00210399
0.00138456
0.002158
0.00182561
0.00209273
0.00216439
0.00212373
0.00211337
0.00189467
0.00195709
0.00168249
0.00182887
0.00217271
0.00159008
0.00170618
0.00192952
0.00186385
0.00216649
0.00197907
0.00165219
0.00179641
0.00215306
0.00143318
0.00214895
0.00174123
0.00182023
0.001939
0.00166211
0.00187866
0.00112063
0.00121414
0.00143466
0.00156145
0.0021334
0.00140349
0.00190981
0.00196644
0.00158158
0.00185436
0.00186194
0.00212939
0.00172947
0.00212191
0.00158804
0.00162272
0.00142398
0.00190502
0.00213416
0.00192404
0.00197177
0.0014293
0.00151727
0.00212527
0.00164086
0.00171221
0.00176414
0.00184968
0.00193046
0.00180179
0.00186339
0.00156059
0.00199403
0.00210387
0.00176132
0.00142273
0.00155697
0.00194102
0.0018905
0.00212092
0.00112029
0.00146606
0.00213638
0.00210295
0.00196003
0.00207403
0.00158295
0.00143916
0.00195494
0.00200874
0.00211998
0.00175503
0.00209566
0.00154109
0.00211944
0.00210599
0.00209316
0.00190431
0.0021106
0.00209
0.00213141
0.00207683
0.00198993
0.00206879
0.00195143
0.00173508
0.00185688
0.00130216
0.00209259
0.00208537
0.00205489
0.00191578
0.00143564
0.000437782
0.00127598
0.00128628
0.00213172
0.00213113
0.00190869
0.00183139
0.00208219
0.00049337
0.00198008
0.00211035
0.00017803
0.00175877
0.00160923
0.00211882
0.00205714
0.00207417
0.00209482
0.00195795
0.0019176
0.00212949
0.000135286
0.000115545
0.00210975
0.00157908
0.00210918
0.0016959
0.00212786
0.00206677
0.00172081
0.000217734
0.00189091
0.00212566
0.00210436
0.00214178
0.000439601
0.00206059
0.00201699
0.000194241
0.00171975
0.00186834
0.00212245
0.000443524
0.00162776
0.00212978
0.00214798
0.00032956
0.00190702
0.00211733
0.00174937
0.00211874
0.00189625
0.00211667
0.00195091
0.00211458
0.00169203
0.000322518
0.00187474
0.0021334
0.00215768
0.00207564
0.0018143
0.00215459
0.00109698
0.00178103
0.00193439
0.00216192
0.00196024
0.00174952
0.00210544
0.00211309
0.00201087
0.0021291
0.00215828
0.000221754
0.00215743
0.002124
0.00214667
0.00211196
0.000292044
0.00182381
0.00213577
0.00212208
0.00184456
0.00215973
0.00213512
0.00190952
0.00179608
0.000126043
0.000453432
0.00211798
0.00209974
0.00216145
0.00215857
0.00186464
0.00212865
0.00212155
0.00213006
0.0018219
0.00214135
0.00177141
0.00214618
0.00210796
0.00211683
0.00215023
0.00203582
0.00194091
0.00216
0.00211294
0.000248676
0.00213186
0.00215128
0.000300442
0.00214143
0.000133155
0.00208858
0.00213131
0.00214744
0.000226215
0.00203459
0.00215787
0.00207704
0.00192915
0.000283201
0.00174421
0.0021222
0.00197333
0.0018227
0.00191551
0.00182469
0.000397814
0.00216198
0.00213254
0.00195226
0.00209472
0.00211839
0.00215679
0.00214969
0.00212765
0.00215475
0.00215477
0.00211785
0.00187125
0.00217631
0.00175315
0.00140493
0.00186898
0.00191198
0.000309034
0.00209229
0.001708
0.00175748
0.00215692
0.00213237
0.00197979
0.00211701
0.002133
0.00213121
0.00214593
0.000322233
0.000164433
0.00213287
0.00215091
0.00140714
0.00174343
0.00202892
0.000413047
0.00212724
0.00215812
0.00215263
0.00167605
0.00212555
0.00207117
0.00122119
0.00162056
0.00210412
0.00190405
0.00183697
0.00208244
0.000239891
0.00214242
0.00206179
0.00211942
0.00212116
0.00214552
0.00143572
0.00204578
0.00215773
0.00180899
0.00180312
0.00206113
0.00215057
0.00212968
0.00199492
0.00152856
0.0021593
0.00212552
0.00215571
0.00216256
0.00171273
0.00209223
0.00213925
0.00167428
0.00212543
0.00195838
0.00215786
0.00215697
0.00199801
0.00204527
0.00214776
0.00213399
0.00212527
0.00211666
0.00179001
0.00211797
0.00213254
0.00214867
0.00213644
0.00214687
0.00193738
0.00171783
0.00216984
0.00191645
0.00208819
0.00209912
0.000232498
0.00211408
0.00208105
0.00214244
0.00215197
0.000258737
0.000363137
0.00205797
0.00175485
0.00189796
0.00110154
0.00212664
0.00215348
0.00144339
0.00211683
0.00206613
0.00204426
0.00213109
0.00216226
0.00214204
0.00216219
0.00207436
0.00213442
0.00214659
0.00202846
0.00216296
0.00216281
0.00202651
0.00210513
0.00025204
0.0020759
0.00209656
0.00218095
0.00210486
0.00210205
0.00186637
0.00215411
0.00216301
0.00213689
0.00201234
0.00175846
0.00213246
0.00210591
0.00214261
0.000325752
0.00213381
0.00214798
0.00211663
0.00213479
0.000107555
0.00211787
0.0021827
0.00203446
0.00209184
0.00164799
0.00181493
0.00190754
0.00196411
0.000100787
0.00212782
0.0019936
0.00211187
0.00215757
0.00212364
0.00211346
0.0021311
0.00212632
0.00213593
0.00212482
0.0021197
0.0019613
0.00205318
0.0019947
0.00200376
0.00204274
0.00207835
0.00197801
0.00181228
0.00215933
0.00202854
0.00198667
0.00169067
0.00217
0.00212031
0.00212762
0.00194388
0.00213187
0.00210322
0.00213196
0.00211868
0.00201346
0.00131607
0.0021309
0.00216839
0.00213704
0.00210861
0.00216041
0.00150091
0.0020789
9.99207e-05
0.00211967
0.0017734
0.00214074
0.00211731
0.00207221
0.00216565
0.00215076
0.00204609
0.00210866
0.0021285
0.00199466
0.00205388
0.00210712
0.00206298
0.00191511
0.00218845
0.00156888
0.00208458
0.00192942
0.00211118
0.00208963
0.00212342
0.00212778
0.00180923
0.00212083
0.00214104
0.00171128
0.00197789
0.00207629
0.00188689
0.0016638
0.00213098
0.00206316
0.00204898
0.00212095
0.00212548
0.0021258
0.00207495
0.00218857
0.0021283
0.00212335
0.00201719
0.00213473
0.00201482
0.00138532
0.00213583
0.00213877
0.0020278
0.00202849
0.00195932
0.00206297
0.00211327
0.00212018
0.00167542
0.0020156
0.0020586
0.00212409
0.0021738
0.00179468
0.00211006
0.00203385
0.00210974
0.00217441
0.00199707
0.00184093
0.00194225
0.00211069
0.00214632
0.00209191
0.00208206
0.00218454
0.00211937
0.00212685
0.00205185
0.0021243
0.00203964
0.0019187
0.00197957
0.00213518
0.00211046
0.00171904
0.00176507
0.00211027
0.0021278
0.00211029
0.00212775
0.00217116
0.00194994
0.00192863
0.00205873
0.00212534
0.00208171
0.0016846
0.00213224
0.00219513
0.00165041
0.00161575
0.00179884
0.00195822
0.00213803
0.0016936
0.00160775
0.00204483
0.00203427
0.00213829
0.00211274
0.00204118
0.00215233
0.00212251
0.00197243
0.00184364
0.00147288
0.00164118
0.00166537
0.00214811
0.00213352
0.00196284
0.00210871
0.00212768
0.00198719
0.0018944
0.00203217
0.00170245
0.00219373
0.00193967
0.00213137
0.00211823
0.00209173
0.00173222
0.00206795
0.00190809
0.0018491
0.00200014
0.00202601
0.00219199
0.00203423
0.00212809
0.00208309
0.00143931
0.00173194
0.00201147
0.00208529
0.00191659
0.00169679
0.00211227
0.00215655
0.000336919
0.00148869
0.00157955
0.00198459
0.0020519
0.00196757
0.00204026
0.00212134
0.00144091
0.00201718
0.00212661
0.00161477
0.0021811
0.00212724
0.00210438
0.00185557
0.00199978
0.00210009
0.00211961
0.00202034
0.00193727
0.00200502
0.00219959
0.00202947
0.00213029
0.00194961
0.00145188
0.00158516
0.00196135
0.00189342
0.0020543
0.00216322
0.00213024
0.00169098
0.00187297
0.00203213
0.00210697
0.00198981
0.00202796
0.0021393
0.00195874
0.00210762
0.00218084
0.00144587
0.00213782
0.00157859
0.00213471
0.00194096
0.00211148
0.00209362
0.00219955
0.00211904
0.00210871
0.00200308
0.00218946
0.00202614
0.00213245
0.00212683
0.0021566
0.00208533
0.00203053
0.00212387
0.00191446
0.00207075
0.00214826
0.00181937
0.00211535
0.00201479
0.00201693
0.00176964
0.00169414
0.00191591
0.00206028
0.00161269
0.00213201
0.0020276
0.00217288
0.00219742
0.00220201
0.00185889
0.00141899
0.00201905
0.00200755
0.00189199
0.00213321
0.00202564
0.00163841
0.00196282
0.00198525
0.00199254
0.00203394
0.00203818
0.00215925
0.00213197
0.00204912
0.00162373
0.00196711
0.00184715
0.00167503
0.00213772
0.00205052
0.00213701
0.00216633
0.00198598
0.00198533
0.00175006
0.00220068
0.00219321
0.00185716
0.00212137
0.00213664
0.0018406
0.00153779
0.0021352
0.00210048
0.00213324
0.00194661
0.00219045
0.00218188
0.00175307
0.00209173
0.00165501
0.00211625
0.00210665
0.00207609
0.00214966
0.00198572
0.0012759
0.00170789
0.00206
0.00182895
0.00194198
0.00202488
0.000229013
0.000134803
0.00150958
0.00196013
0.0019198
0.00206586
0.00203166
0.00160659
0.00219548
0.00203676
0.0021247
0.00204279
0.00212378
0.00205505
0.00213588
0.00164455
0.00205856
0.00183016
0.000289343
0.00207164
0.000318491
0.00219807
0.00196818
0.00219531
0.00189493
0.00216964
0.00209991
0.00213387
0.0015595
0.00156828
0.00212187
0.00161241
0.00155601
0.00165121
0.00205867
0.0016073
0.0020547
0.00210787
0.00185845
0.00218822
0.00200982
0.00213032
0.00218995
0.00188248
0.00213606
0.00207964
0.00213569
0.00167641
0.00208578
0.00187489
0.0019646
0.00219768
0.00212536
0.00193783
0.00210013
0.00211562
0.00176372
0.00213918
0.00200823
0.00210519
0.00158375
0.00202862
0.00212719
0.00196308
0.00163237
0.00203347
0.00216933
0.00196611
0.00207484
0.00217769
0.00183073
0.00195065
0.00136924
0.0021236
0.00218515
0.0015353
0.00198483
0.00213422
0.00159283
0.00176859
0.00198935
0.00157058
0.00207758
0.00206532
0.00218478
0.00159534
0.00192667
0.00167617
0.000304523
0.00219438
0.00200183
0.00208987
0.00178983
0.00216446
0.00206619
0.00214127
0.00212363
0.00195867
0.00186398
0.00205242
0.00190302
0.00216712
0.00204612
0.00206342
0.0020247
0.00211226
0.00176851
0.00219825
0.00213376
0.00217522
0.00213123
0.0017236
0.00209504
0.00186363
9.17398e-05
0.00206253
0.000341821
0.00212937
0.0021256
0.00113549
0.0021673
0.00212646
0.00216107
0.00212396
0.00218844
0.00213712
0.00206566
0.00196942
0.00173404
0.00210378
0.00209369
0.00215424
0.00219228
0.00168758
0.00160321
0.00208564
0.00199759
0.00208455
0.00159303
0.00211962
0.00207355
0.00177676
0.00213281
0.00200569
0.0020567
0.00183791
0.0021997
0.00210635
0.00213913
0.00217569
0.00158464
0.0017375
0.00210247
0.000247979
0.00211417
0.00154597
0.00220167
0.0021291
0.001558
0.00209461
0.00215785
0.00206871
0.00207661
0.00207708
0.00206343
0.00216033
0.00177159
0.000291624
0.00214866
0.0019384
0.00194095
0.00192692
0.00217214
0.00213098
0.00212297
0.00205168
0.00153955
0.00219395
0.00159516
0.00212991
0.00215425
0.0019346
0.00188057
0.00212764
0.00195635
0.00212924
0.00157096
0.001911
0.000126276
0.00168159
0.00207083
0.00193257
0.002127
0.00217751
0.0016159
0.00156447
0.00213253
0.0021532
0.00168985
0.00187199
0.00206777
0.00173956
0.00212387
0.00213355
0.00211737
0.00216353
0.00217706
0.00213253
0.00217869
0.00207983
0.0018765
0.00212405
0.00219856
0.00211209
0.0020791
0.00162321
0.000158101
0.00184737
0.00137971
0.000368891
0.00209048
0.00215729
0.00207381
0.00203053
0.00223747
0.00215798
0.00214418
0.00016569
0.00220928
0.00210669
0.000142647
0.00211058
0.00010855
0.00205229
0.00217081
0.00169833
0.00178537
0.00220779
0.00211629
0.00178862
0.00207093
0.00205192
0.00214619
0.00212843
0.0018442
0.0016259
0.00219879
0.0015715
0.00212944
0.00215024
0.0015271
0.0020831
0.00212035
0.00208787
0.00200427
0.00223155
0.00211497
0.00213697
0.00218676
0.00212732
0.00210302
0.00215522
0.00150949
0.00147536
0.00219854
0.00212237
0.0020746
0.00174897
0.00218102
0.00221423
0.00158494
0.0021776
0.00213716
0.00214637
0.00208293
0.0021302
0.00195195
0.00216805
0.0021919
0.00221398
0.00192521
0.00227673
0.00206196
0.00190878
0.00154969
0.00218425
0.00200687
0.00223637
0.00208177
0.00190727
0.00187669
0.00207505
0.00210195
0.00220616
0.00213991
0.00191799
0.00223969
0.0019117
0.000142741
0.00159221
0.00162989
0.00207103
0.00219851
0.00209057
0.00178541
0.00165537
0.00158013
0.00214916
0.00185788
0.00211845
0.0016771
0.00173978
0.00220167
0.00207896
0.00166838
0.00215273
0.00210665
0.00227518
0.00211243
0.00212664
0.00225634
0.00212949
0.00179404
0.00211987
0.00212671
0.00207037
0.00220812
0.00197453
0.00205958
0.00219282
0.00197656
0.00211482
0.00212847
0.00210733
0.00210539
0.00220147
0.0021069
0.00211852
0.00222029
0.00147258
0.0020798
0.00159704
0.00226153
0.00213571
0.00176984
0.00184863
0.00229951
0.00190342
0.00220803
0.00222328
0.0020977
0.00207662
0.000392286
0.00222657
0.0022205
0.00214518
0.000328795
0.00206733
0.00222376
0.00123323
0.00209044
0.00218308
0.00164448
0.00207414
0.00230236
0.00207695
0.00223538
0.00217922
0.000325604
0.00033175
0.00219326
0.00206394
0.00231246
0.00198725
0.00208225
0.00200742
0.00221155
0.00224424
0.00215415
0.000328354
0.00212861
0.00143231
0.00212683
0.00211786
0.00216973
0.00213068
0.00203759
0.00214984
0.000137918
0.000140658
0.002121
0.00209995
0.00220671
0.00187889
0.00222563
0.00213539
0.00210783
0.00208343
0.00228589
0.00188403
0.00186775
0.00203808
0.00206668
0.00223282
0.000326769
0.00160654
0.00223771
0.00213912
0.00232528
0.00223494
0.00219152
0.00214087
0.00186051
0.0018035
0.00177697
0.00223936
0.0022753
0.000160266
0.00172453
0.00207459
0.00224504
0.000340933
0.00218427
0.00224649
0.000331259
0.000208131
0.00206815
0.00178007
0.00233
0.00222116
0.00232081
0.00192053
0.00208237
0.00210534
0.00170723
0.00206409
0.00208891
0.000176393
0.00034577
0.00219936
0.000271153
0.00190728
0.00205821
0.0016762
0.00224961
0.00200951
0.00217317
0.00212902
0.00195376
0.00212138
0.00219618
0.00205646
0.0014037
0.00177469
0.00217339
0.00215529
0.00208495
0.00231823
0.0021571
0.00206976
0.00215983
0.000383478
0.00223491
0.00212407
0.00213678
0.000348772
0.00219531
0.00212975
0.00132718
0.000322928
0.00227257
0.00158063
0.00213949
0.00221781
0.0020447
0.00211573
0.00234286
0.00205531
0.00212856
0.0020786
0.0022333
0.00217219
0.00164585
0.0016289
0.00225016
0.00224533
0.00229159
0.00203533
0.00230978
0.00202807
0.00165892
0.00230039
0.00224408
0.0018411
8.64854e-05
9.53309e-05
0.00210568
0.00218597
0.00225289
0.00172075
0.00234615
0.00206184
0.00204222
0.00142738
0.000350945
0.00184652
0.00221786
0.00209322
0.00186567
0.00227093
0.00224033
0.00229115
0.00210851
0.00208494
0.00212854
0.00217885
0.00220572
0.00206202
0.00182059
0.0017677
0.00233101
0.00225448
0.00205118
0.00216461
0.000135102
0.00206103
0.0022002
0.00221923
0.00222356
0.00214041
0.000325412
0.00180435
0.0015208
0.00041127
0.0020482
0.00217399
0.00223885
0.000172012
0.00156091
0.00222982
0.00202304
0.00206336
0.00224933
0.0021029
0.001899
0.00213719
0.00178975
0.00195329
0.00203323
0.00167981
0.00216159
0.00232675
0.00213956
0.00208834
0.00198202
0.00140789
0.00210403
0.00223127
0.000379412
0.00218583
0.000354263
0.00212524
0.00231975
0.00204969
0.00217217
0.0021945
0.00225423
0.00214999
0.00158433
0.0020662
0.002019
0.0022577
0.00231294
0.00208032
0.00225043
0.00016165
0.00211782
0.00219909
0.00155759
0.00235195
0.00216246
0.00166476
0.00211196
0.000159339
0.00207874
0.00227864
0.00192448
0.000160096
0.00127676
0.00221196
0.00181891
0.00182843
0.00197685
0.00220173
0.00205282
0.000291549
0.002241
0.00213443
0.00217018
0.00225359
0.00205818
0.000162017
0.00221272
0.0018158
0.00202789
0.0020836
0.00236213
0.00205596
0.0020528
0.0020916
0.00206316
0.00178983
0.00204074
0.00234216
0.000163426
0.000167367
0.00169778
0.00208155
0.00219901
0.000179751
0.00204548
0.00214098
0.000309298
0.00208758
0.00224149
0.00226638
0.0020707
0.000276007
0.000170401
0.00219265
0.00229237
0.000360085
9.41792e-05
0.000109713
0.00185731
0.00161432
0.00219476
0.00181319
0.00215301
0.00232454
0.00213867
0.00212128
0.0023215
0.00204757
0.000146452
0.00207958
0.00015751
0.000161454
0.00233571
0.0022857
0.00152855
0.000172729
0.0021357
0.00197552
0.00216067
0.000492466
0.00192963
0.000504592
0.00207815
0.000384629
0.00161004
0.00141879
0.000521822
0.002341
0.000334118
0.00212265
0.00218067
0.000299279
0.000535505
0.00220245
0.00054438
0.00178755
0.000232334
0.000551247
0.00224823
0.00130413
0.00219921
0.00220349
0.000216093
0.000174224
0.000557164
0.00211036
0.00196645
0.00209328
0.00211863
0.0022158
0.0021938
0.00224829
0.00207093
0.00208078
0.00205258
0.000485945
0.00223182
0.00135591
0.00214757
0.00176068
0.00207168
0.00198409
0.00204298
0.000181941
0.00150894
0.000561828
0.00220072
0.00193379
0.00205199
0.00223361
0.00213726
0.0019281
0.00223859
0.00211628
0.000175726
0.00176903
0.00230065
0.00186446
0.000595491
0.0016911
0.0022254
0.00226213
0.00229613
0.00207215
0.000482907
0.00210052
0.00214447
0.000479278
0.00218666
0.00236972
0.00036284
0.00220989
0.00181356
0.0023249
0.000566206
0.00223963
0.00213153
0.00215032
0.000473059
0.00207023
0.00223862
0.00222328
0.00211514
0.000151352
0.00210946
0.00166728
0.00213585
0.00235907
0.002066
0.00225497
0.00152854
0.00232912
0.00143029
0.00235082
0.00186654
0.00219457
0.000148939
0.000594437
0.000597925
0.000178108
0.00216719
0.000329903
0.00209613
0.00228778
0.00142741
0.000392037
0.000183958
0.00122644
0.00206935
0.00184799
0.00203488
0.00150373
0.00174063
0.00173381
0.000460741
0.00220587
0.0018368
0.0020769
0.00212253
0.00227001
0.00208838
0.00217944
0.0018668
0.00169289
0.000570789
0.00209823
0.00212968
0.0016797
0.00213686
0.00138229
0.000241423
0.00228156
0.0002856
0.000245788
0.00220072
0.000252755
0.00209339
0.00231217
0.000261169
0.00222478
0.000601296
0.000267913
0.00209324
0.00165145
0.000449349
0.00027271
0.00027643
0.00214094
0.00208785
0.00210285
0.00230699
0.00222415
0.00210893
0.00227389
0.00169453
0.000109016
0.00011885
0.000279497
0.00215867
0.00231327
0.00217429
0.0006028
0.00211776
0.000315616
0.00059602
0.00213161
0.00215877
0.000598766
0.000437508
0.00193653
0.00133514
0.000281957
0.000608995
0.00222331
0.000188355
0.00166082
0.00210999
0.00215957
0.00173163
0.00213468
0.00023904
0.000236829
0.00230549
0.00219864
0.000233704
0.00233675
0.000573976
0.00211723
0.00223329
0.000142167
0.000300585
0.000299667
0.000604995
0.00194705
0.00167687
0.00234325
0.00217891
0.00218162
0.0023294
0.00163263
0.00215249
0.00237748
0.00212491
0.00022811
0.00236545
0.00162445
0.00216997
0.000421476
0.00189634
0.000284317
0.00237333
0.00172407
0.000130666
0.000278234
0.00175373
0.00213029
0.00216266
0.00226962
0.000300538
0.00228702
0.000133333
0.000394124
0.000368987
0.00217998
0.0023683
0.00233379
0.00214741
0.00197562
0.00226162
0.000616383
0.00216566
0.000182771
0.000183838
0.00167777
0.00022205
0.00231761
0.000370472
0.00213088
0.00211425
0.00221735
0.00232725
0.00230823
0.00230856
0.00129085
0.00237805
0.000286626
0.000215001
0.00212687
0.000303548
0.000191925
0.0023814
0.00227382
0.00228277
0.000298316
0.00214479
0.000302075
0.000608681
0.00236053
0.0021995
0.0002996
0.00036815
0.00215355
0.000301165
0.00227323
0.00225518
0.000122295
0.00217293
0.0023007
0.00218282
0.000371731
0.0022216
0.00231866
0.000205333
0.000201691
0.00237972
0.00126462
0.0023207
0.00233496
0.00179492
0.00206948
0.00226647
0.00230114
0.000307008
0.0018696
0.00236513
0.00215135
0.00215541
0.00215292
0.0016107
0.000291814
0.000120479
0.00225358
0.00227439
0.00162492
0.00181094
0.00202683
0.00060678
0.000303842
0.00238182
0.00234438
0.0006042
0.0023488
0.000577348
0.000288083
0.00226195
0.00220746
0.00215315
0.00222746
0.000185762
0.000184866
0.0022275
0.000363823
0.000609658
0.000601471
0.00227112
0.00183033
0.00220498
0.00232738
0.00222069
0.000260732
0.000109687
0.0023585
0.00227111
0.00191771
0.000624266
0.000310898
0.00237998
0.00220005
0.00231701
0.00201851
0.00223682
0.00167525
0.00225312
0.000599738
0.000182284
0.00221472
0.000371379
0.0022269
0.000303354
0.00161612
0.00030464
0.00061165
0.000305657
0.0022297
0.000185986
0.00233252
0.000358956
0.0022229
0.00233557
0.000302013
0.000596889
0.00225538
0.000585063
0.000590203
0.000294702
0.00238614
0.000191549
0.00239702
0.000300748
0.00229393
0.00225712
0.00163331
0.000178066
0.000319149
0.000632431
0.000640757
0.000611838
0.000355428
0.000305985
0.000299699
0.00174689
0.00224895
0.00199945
0.00223084
0.000171964
0.000299381
0.000598359
0.00229214
0.00213519
0.00192836
0.00222292
0.00237782
0.00209841
0.00222366
0.000160121
0.000345097
0.00224896
0.000185252
0.000357258
0.000141573
0.000285592
0.00155308
0.00204688
9.66768e-05
0.000201797
9.19017e-05
7.92022e-05
0.000244978
0.000112173
0.00029709
0.000593998
0.000306572
0.000592098
0.000296022
0.00029232
0.000597356
0.00029834
0.000290118
0.000581139
0.00049815
0.000179772
0.000314953
0.00015952
0.000350651
0.000286877
0.000634245
0.000122331
0.000300272
0.000301319
0.000603771
0.000302086
0.000300334
0.000601514
0.0003216
0.00171679
0.00183272
0.00214348
0.00240031
0.00225832
0.000391368
0.00018831
0.00169596
0.00148381
0.00164177
0.000181527
0.00173782
0.00208928
0.00143436
0.00175659
0.000385919
0.000251057
0.00188169
0.00169015
0.000134933
0.000175011
0.000131518
0.00209711
0.00110457
0.00171595
0.00208591
0.000142496
0.00128064
0.00202383
0.00172748
0.000130746
0.000132846
0.000126505
0.000107607
0.00015424
0.000105635
0.000116601
0.000111733
0.0016401
0.000330846
0.00164532
8.73294e-05
6.85616e-05
7.52038e-05
0.000336413
0.0020098
0.00209182
9.50227e-05
7.5192e-05
7.13508e-05
0.00168021
0.00171304
0.000244297
0.00142993
0.00188815
0.00124111
0.00109172
0.000252287
0.000100012
0.000348184
0.000224577
0.000365763
0.000240635
0.000228951
0.000230991
7.36332e-05
7.4632e-05
0.00161476
0.00200798
0.00108202
0.00193004
0.000134096
0.000195759
0.0001733
0.00106995
0.00123433
0.000201678
0.00199695
0.00108942
0.00131512
0.00132712
8.5035e-05
0.00122276
0.0011486
0.00110711
0.000213812
0.00200737
0.00118122
0.00200116
0.000145899
0.00112819
0.00205421
0.00108399
0.000171887
0.000100956
0.00137971
0.00200268
0.00208325
0.001083
0.00109449
8.79084e-05
0.0020202
0.00201983
0.00113858
0.00202326
0.00202826
0.000227359
0.00204167
0.00203753
0.00138832
0.00205887
0.00140555
0.00126272
0.00122802
6.42139e-05
0.0020457
0.000198698
9.15408e-05
0.00206711
)
;

boundaryField
{
    patch0
    {
        type            nutkWallFunction;
        Cmu             0.09;
        kappa           0.41;
        E               9.8;
        value           nonuniform List<scalar> 
4010
(
0.000157418
0.000157418
0.000210048
0.000210048
0.000212416
0.000212416
0.000226344
0.000226344
0.000217375
0.000217375
0.000234546
0.000234546
0.000238779
0.000238779
0.000225229
0.000225229
0.000236092
0.000236092
0.000223398
0.000223398
0.000240035
0.000240035
0.000239112
0.000239112
0.000149131
0.000149131
0.000240396
0.000240396
0.000243826
0.000243826
0.000244377
0.000244377
0.000161154
0.000161154
0.00023062
0.00023062
0.00014899
0.00014899
0.000223794
0.000223794
0.000132014
0.000132014
0.000249896
0.000249896
0.000172938
0.000172938
0.000238939
0.000238939
0.000250631
0.000250631
0.000233503
0.000233503
0.000214948
0.000214948
0.000221517
0.000221517
0.000228046
0.000228046
0.000193817
0.000193817
0.000181574
0.000181574
0.000251566
0.000251566
0.000151424
0.000151424
0.000164694
0.000164694
0.000225356
0.000225356
0.000183553
0.000183553
0.000250898
0.000250898
0.000230482
0.000230482
0.000194654
0.000194654
0.000172579
0.000172579
0.000249483
0.000249483
0.00013621
0.00013621
0.000249051
0.000249051
0.000165672
0.000165672
0.000213459
0.000213459
0.000225864
0.000225864
0.000164931
0.000164931
0.000219814
0.000219814
0.000109026
0.000109026
0.000117216
0.000117216
0.000158827
0.000158827
0.000147882
0.000147882
0.00024712
0.00024712
0.000156444
0.000156444
0.000216086
0.000216086
0.000229439
0.000229439
0.000149504
0.000149504
0.000217212
0.000217212
0.000217984
0.000217984
0.000244296
0.000244296
0.000164015
0.000164015
0.000245165
0.000245165
0.000149801
0.000149801
0.000191049
0.000191049
0.000167172
0.000167172
0.000222815
0.000222815
0.00024644
0.00024644
0.000187901
0.000187901
0.000229615
0.000229615
0.000136689
0.000136689
0.000149926
0.000149926
0.000245679
0.000245679
0.000193283
0.000193283
0.000197361
0.000197361
0.000207124
0.000207124
0.000215957
0.000215957
0.000225578
0.000225578
0.000211396
0.000211396
0.000217441
0.000217441
0.000147513
0.000147513
0.00023253
0.00023253
0.000211282
0.000211282
0.000197881
0.000197881
0.000135312
0.000135312
0.00014745
0.00014745
0.000190508
0.000190508
0.000221135
0.000221135
0.000245117
0.000245117
0.000108975
0.000108975
0.000140656
0.000140656
0.000246657
0.000246657
0.000211163
0.000211163
0.000228248
0.000228248
0.000238237
0.000238237
0.000156324
0.000156324
0.000169198
0.000169198
0.00022832
0.00022832
0.000234111
0.000234111
0.000240308
0.000240308
0.000205587
0.000205587
0.000226128
0.000226128
0.000147482
0.000147482
0.000225207
0.000225207
0.000215169
0.000215169
0.000223205
0.000223205
0.000222612
0.000222612
0.000235286
0.000235286
0.000227395
0.000227395
0.000246913
0.000246913
0.000230111
0.000230111
0.000232039
0.000232039
0.000240257
0.000240257
0.000227594
0.000227594
0.000192101
0.000192101
0.00021763
0.00021763
0.000124933
0.000124933
0.000214721
0.000214721
0.000241431
0.000241431
0.000235301
0.000235301
0.000223984
0.000223984
0.000136789
0.000136789
4.63771e-05
4.63771e-05
0.000122555
0.000122555
0.000123801
0.000123801
0.000246891
0.000246891
0.000216455
0.000216455
0.00021835
0.00021835
0.000214614
0.000214614
0.000221726
0.000221726
5.16962e-05
5.16962e-05
0.00023098
0.00023098
0.000218676
0.000218676
2.08173e-05
2.08173e-05
0.000194522
0.000194522
0.000153762
0.000153762
0.000215324
0.000215324
0.000239025
0.000239025
0.000240803
0.000240803
0.000218538
0.000218538
0.000228369
0.000228369
0.000224142
0.000224142
0.000246586
0.000246586
1.62797e-05
1.62797e-05
1.62797e-05
1.36765e-05
1.36765e-05
1.36765e-05
0.000215951
0.000215951
0.000149021
0.000149021
0.000218307
0.000218307
0.000165815
0.000165815
0.000241881
0.000241881
0.000238575
0.000238575
0.000197246
0.000197246
2.44873e-05
2.44873e-05
2.44873e-05
0.00021648
0.00021648
0.000216144
0.000216144
0.000219103
0.000219103
0.000217431
0.000217431
4.65496e-05
4.65496e-05
0.000239268
0.000239268
0.000235012
0.000235012
2.3066e-05
2.3066e-05
0.000190548
0.000190548
0.000215264
0.000215264
0.00021686
0.00021686
4.69323e-05
4.69323e-05
0.000173108
0.000173108
0.000216299
0.000216299
0.000227287
0.000227287
3.57915e-05
3.57915e-05
0.000223065
0.000223065
0.000222667
0.000222667
0.000205311
0.000205311
0.000240566
0.000240566
0.000221771
0.000221771
0.000245188
0.000245188
0.000227837
0.000227837
0.000227316
0.000227316
0.000197921
0.000197921
3.68093e-05
3.68093e-05
0.00018866
0.00018866
0.000237884
0.000237884
0.000242317
0.000242317
0.000241049
0.000241049
0.000212858
0.000212858
0.000235782
0.000235782
0.000106974
0.000106974
0.000208875
0.000208875
0.000223731
0.000223731
0.000250027
0.000250027
0.000228798
0.000228798
0.000199657
0.000199657
0.000223909
0.000223909
0.000226836
0.000226836
0.000234304
0.000234304
0.000241615
0.000241615
0.000249253
0.000249253
2.49029e-05
2.49029e-05
2.49029e-05
0.000249519
0.000249519
0.000218753
0.000218753
0.000217919
0.000217919
0.000230204
0.000230204
3.21267e-05
3.21267e-05
0.000213666
0.000213666
0.000216848
0.000216848
0.000219578
0.000219578
0.000215781
0.000215781
0.000249381
0.000249381
0.000242263
0.000242263
0.000221356
0.000221356
0.000174518
0.000174518
1.50181e-05
1.50181e-05
1.50181e-05
4.78864e-05
4.78864e-05
0.00023536
0.00023536
0.000216
0.000216
0.000249024
0.000249024
0.000249806
0.000249806
0.000218298
0.000218298
0.000242403
0.000242403
0.000216335
0.000216335
0.000222079
0.000222079
0.000213596
0.000213596
0.000217375
0.000217375
0.000204975
0.000204975
0.000238475
0.000238475
0.000225899
0.000225899
0.000218172
0.000218172
0.00024886
0.00024886
0.000237045
0.000237045
0.000226687
0.000226687
0.000249875
0.000249875
0.000226225
0.000226225
2.97249e-05
2.97249e-05
0.000244788
0.000244788
0.000218382
0.000218382
3.57832e-05
3.57832e-05
0.000247598
0.000247598
1.59542e-05
1.59542e-05
1.59542e-05
0.000214957
0.000214957
0.000218659
0.000218659
0.000245534
0.000245534
2.53629e-05
2.53629e-05
2.53629e-05
0.000236724
0.000236724
0.000249796
0.000249796
0.000231167
0.000231167
0.000223327
0.000223327
3.28492e-05
3.28492e-05
0.000170878
0.000170878
0.000217856
0.000217856
0.000230294
0.000230294
0.000213753
0.000213753
0.000223901
0.000223901
0.000213865
0.000213865
4.25014e-05
4.25014e-05
0.000250033
0.000250033
0.000216584
0.000216584
0.000227955
0.000227955
0.000239527
0.000239527
0.000231891
0.000231891
0.000249702
0.000249702
0.000218132
0.000218132
0.000218292
0.000218292
0.000223974
0.000223974
0.00024903
0.00024903
0.000245371
0.000245371
0.000219011
0.000219011
0.000251955
0.000251955
0.000206005
0.000206005
0.000133785
0.000133785
0.000218791
0.000218791
0.000220686
0.000220686
3.37141e-05
3.37141e-05
0.000240502
0.000240502
0.000191971
0.000191971
0.000206095
0.000206095
0.0002498
0.0002498
0.000246922
0.000246922
0.000231026
0.000231026
0.000226053
0.000226053
0.000247026
0.000247026
0.000216576
0.000216576
0.000219833
0.000219833
3.51313e-05
3.51313e-05
1.89027e-05
1.89027e-05
1.89027e-05
0.00024654
0.00024654
0.000248894
0.000248894
0.000134291
0.000134291
0.00020444
0.00020444
0.000236263
0.000236263
4.3979e-05
4.3979e-05
0.000218206
0.000218206
0.000249852
0.000249852
0.000248851
0.000248851
0.00019729
0.00019729
0.00024619
0.00024619
0.000219854
0.000219854
0.000117866
0.000117866
0.000184355
0.000184355
0.000243437
0.000243437
0.000207447
0.000207447
0.000215273
0.000215273
0.000224001
0.000224001
2.67634e-05
2.67634e-05
2.67634e-05
0.000222991
0.000222991
0.000239975
0.000239975
0.000244729
0.000244729
0.000217826
0.000217826
0.000248611
0.000248611
0.000136499
0.000136499
0.000238216
0.000238216
0.00024983
0.00024983
0.000209238
0.000209238
0.000209891
0.000209891
0.000205441
0.000205441
0.000248608
0.000248608
0.000246893
0.000246893
0.000232549
0.000232549
0.000144501
0.000144501
0.000231638
0.000231638
0.000218062
0.000218062
0.000249443
0.000249443
0.000249604
0.000249604
0.000201419
0.000201419
0.000242315
0.000242315
0.000231211
0.000231211
0.000196243
0.000196243
0.000240872