/*--------------------------------*- C++ -*----------------------------------*\
  =========                 |
  \\      /  F ield         | OpenFOAM: The Open Source CFD Toolbox
   \\    /   O peration     | Website:  https://openfoam.org
    \\  /    A nd           | Version:  8
     \\/     M anipulation  |
\*---------------------------------------------------------------------------*/
FoamFile
{
    version     2.0;
    format      ascii;
    class       surfaceScalarField;
    location    "0.7";
    object      phi;
}
// * * * * * * * * * * * * * * * * * * * * * * * * * * * * * * * * * * * * * //

dimensions      [0 3 -1 0 0 0 0];

internalField   nonuniform List<scalar> 
2805
(
-1.93321e-05
-4.94048e-05
6.8737e-05
0.000445709
-0.000465041
-0.0031763
0.00116923
0.00200707
-0.00137008
-0.00180622
-0.000420622
0.000866331
-0.00426169
0.00289162
-0.00165099
-0.0026107
-0.00536871
0.00371771
-0.00229342
-0.00307529
-0.00128281
0.00245204
-0.00596873
0.00367531
-0.00148116
-0.00448757
0.000158096
-0.000608646
0.00045055
-0.00492091
0.00343974
0.00811971
0.00188695
-0.0100067
0.00926533
-0.00114563
0.000866029
-0.000707933
-0.00155007
-0.00337083
-0.00016458
0.000115175
-0.00365276
0.00210268
0.000335798
-0.000515973
0.000180175
0.00491408
-0.000891534
-0.00402255
-0.000946877
0.000716067
0.00023081
-0.000703439
-0.00294932
0.00034786
0.00456622
-0.00155963
0.000774606
0.000785025
-0.00154469
-1.49373e-05
0.00143895
-0.0016258
0.00018685
-0.00264507
0.00291288
-0.00026781
-0.00120408
0.00160886
-0.00040478
-0.000628984
-0.000317893
-0.00317165
0.00351951
-0.000252119
0.000266919
-1.47997e-05
7.99195e-05
0.000786109
-0.000654651
0.0020936
-6.82441e-05
0.000784311
-0.00079079
-0.00238086
-0.00214695
-0.000498122
-0.00116183
-4.22467e-05
-0.000549064
0.00127123
-0.00206202
-0.000191186
0.000526984
0.00204583
0.000886564
-0.000655754
0.00113605
0.000538321
-0.00167437
-0.00315194
0.00339505
-0.000243108
0.000188798
-0.000212223
2.34251e-05
0.000540783
0.0017027
-0.00224348
-0.00018991
-0.000219828
0.000409738
8.22896e-05
0.000150136
-0.000232426
-0.00112526
-0.000559444
0.0016847
-0.000799832
-0.00485993
0.00396839
0.00126984
-0.0023951
-0.00382107
-0.00046505
0.00428612
-0.00193746
2.42179e-05
0.00167683
0.00123845
0.00043838
-0.00172592
0.00513226
-0.00340634
-3.79493e-05
0.000924513
0.00896857
0.000296761
0.000617859
-0.000655809
0.000670014
-0.00118437
0.000514361
-0.000404238
0.00167408
-0.000268363
0.00197106
-0.00126948
-0.00710153
0.00837101
0.000932513
-0.00100076
-0.000239061
0.000367544
-0.000926988
0.000560072
-0.000364207
-0.000195865
0.00985595
-0.00088738
-0.000491814
0.000123893
0.00148496
0.00107316
-0.000949264
0.000671226
0.000789676
-0.0014609
0.00194669
-0.00221505
-0.000479869
0.00155303
-0.00201963
-0.000223847
0.000985403
0.0049697
-0.00443517
-0.000534526
-0.000297447
-0.00124725
-0.000827532
-5.30118e-05
0.000880543
-0.00034601
-0.000169963
-0.000183382
0.000642948
0.000289564
-0.000387351
0.00728027
-0.00539332
-0.00010762
0.000403223
0.000156849
0.00460383
-0.00587331
-0.00211491
0.00181746
-0.000426021
0.00244506
-0.00354569
0.00110063
0.000839334
-0.000436111
0.000404728
-0.000808966
-2.23678e-05
0.00196906
0.00364981
0.00131989
-0.00409455
0.00236863
0.000549149
0.000122077
-0.00361
0.00237238
0.00123762
0.000493324
-0.00422304
0.000128489
-0.000128909
-0.001986
0.0035942
-0.00114914
-0.00259098
0.000385339
0.00220564
-0.00360248
0.000815439
0.00278704
0.00223564
0.00135856
0.00132863
0.00380363
-0.00397171
-0.00198025
0.00195788
0.00329394
-0.00353301
-0.00256757
0.00110201
-0.000481241
-0.000620767
-8.05019e-05
-0.00193913
-0.000373091
0.000203129
-0.00160293
-0.0118548
0.0107092
0.00173093
-0.000910675
-0.000820255
-0.00229555
0.000117773
-0.000301155
-0.00051396
0.000520604
-6.64476e-06
0.000330311
-0.000216242
-0.00911164
0.00201012
0.00144673
0.00114999
-0.00259672
0.00205766
-0.00126798
0.00139003
-0.00186989
-0.000677764
-0.00011759
0.000401936
-0.000284346
0.000366433
-0.00234668
-0.0012301
6.05373e-05
0.00054258
-0.000603117
0.000274477
-0.000306508
0.00137548
-0.00252462
0.00271757
-0.00321569
0.00223515
-0.00293859
-0.000473966
0.00158371
0.000744307
0.000481199
-0.000481199
-0.000445835
0.000445835
-0.00461564
0.00301271
-0.000280268
0.000162678
0.00368237
0.000184942
0.00542589
-0.00409726
0.000461767
0.00126916
-0.000541508
0.000488496
-0.00051396
0.00138263
0.000675032
-0.00426244
0.00303234
-0.00172402
-0.00140772
0.00255771
0.000482304
3.8301e-05
-0.00197807
-0.00190918
0.00227561
-0.000428327
0.000433415
-5.08876e-06
-0.00116509
0.000683844
-0.00140037
-0.00124973
-0.000503279
-1.0681e-05
0.000123412
0.000252873
-0.000376285
-0.00122124
0.00150786
-0.00291559
0.0001811
0.000301203
-0.000108474
-0.00218708
-0.00320238
-0.000598522
0.00086544
-0.00609519
0.00437117
-0.000871373
-0.00171961
0.00223972
-0.000353748
0.00309719
-0.00399972
0.00090253
-0.00156987
-0.000664657
0.000468791
0.000248204
0.000536106
-0.00600993
0.00476019
0.000570011
0.00191966
-0.00248967
-0.00235218
-0.00950262
-0.0015592
-0.0005008
0.00206
-0.0012042
0.00271206
0.000103027
-0.000322855
0.000278191
-0.000490414
0.00258292
-0.00120029
0.00187528
0.00149113
-0.00336641
-0.00245515
-0.000984163
0.00166801
0.00226129
0.00142108
-0.00237748
0.000659555
-0.00256873
-0.00163876
0.00354409
-0.00474829
-0.000503279
0.00121902
0.00224728
-0.0034663
-0.00154412
0.00464132
0.00124587
-0.00278999
0.00467275
-3.14296e-05
-0.000460635
0.000998707
-0.00221995
0.00406306
-0.00644054
0.00244529
-0.00653254
0.00489378
0.0020287
0.000554217
0.000859974
0.00054258
-0.000508686
5.40708e-06
-0.00041534
0.00313299
-0.00452055
0.00138755
-0.000551717
0.00409581
0.00271016
0.00177536
0.00159024
0.00383565
-0.00173844
-0.00246948
-0.000801232
-0.00106866
0.000819278
0.000452217
-0.00191688
-0.00122082
0.00435382
-0.00276523
-0.000151072
0.00239835
-0.00203504
0.0026946
-0.00132463
-0.001317
0.00264162
0.0044963
-0.00504802
0.00534574
-0.00067299
-0.00106817
0.000603117
0.00634569
-0.00587829
-0.000467398
0.00316553
0.00230464
-0.00245571
0.000433415
-0.0037223
-0.000798248
-0.00534825
0.00287877
0.00218264
-0.00409952
-0.000508686
-0.01336
0.0110079
0.00128972
0.00115557
-0.00463028
0.00090798
0.00270988
-0.000681183
0.000533233
5.08875e-06
0.000423863
0.0029569
-0.00572213
0.00161531
-6.17759e-06
-0.002196
-5.20335e-05
-0.000346399
-0.000162287
6.9965e-05
0.00442634
-0.00263529
-0.000128028
-0.00232713
0.00547161
-0.00669243
-0.00069346
0.00147848
-0.00277508
0.00264141
0.00013367
-0.00197072
-0.00239134
0.000741345
-0.00256564
0.00206104
0.00017868
0.00176919
0.000545251
0.00297426
-0.000328035
-0.000621229
0.000295435
0.000231549
-0.000671624
-0.00104798
0.00288575
0.000504624
0.00605475
-0.000709011
-0.000418096
0.000622333
0.000631912
0.00178666
-0.00241857
0.00531739
0.0010283
-0.00303127
-0.0014039
-0.00228239
0.00107542
0.00122922
0.000397047
0.00249254
-0.000342862
-0.000346399
-0.00127446
0.00360232
-0.00353236
-0.000168865
-0.000132289
0.000745615
-0.00278066
-0.000401936
5.55375e-05
-0.00427162
0.00188028
-0.00148537
0.00289063
-0.00545628
0.000119176
-0.000161423
0.00290737
-0.00183195
0.00572686
-0.00652511
-2.92969e-05
0.000481886
-0.000229012
-0.00164478
0.00711639
0.00205841
0.000651473
-0.00147286
-0.000965567
-0.00370247
-0.0041497
-0.000480584
0.00407831
-0.00248807
0.00221974
-0.00450213
0.000711143
0.00108839
-0.00179953
7.55181e-06
0.000287884
-0.00501029
0.000860596
0.00327333
-0.00122215
0.00097808
0.0012227
-0.000760931
0.0003901
0.00321222
0.00407731
0.00161066
-0.00568797
-0.00269676
0.000458102
-0.00174833
-0.00205188
-0.00215738
0.00234748
-0.000208859
0.00558321
0.00047154
0.00105772
-0.000424048
0.000905933
0.00097363
-0.000988567
-0.00110753
-0.00174064
0.00284817
0.00122479
0.0024978
-0.000190915
-0.00329825
0.00404386
0.00364811
0.00658281
0.0017882
0.0050734
-0.000996087
-0.00239944
-0.000119463
-0.000949199
0.00170158
0.00120579
0.00191105
0.00199054
-0.00414792
0.00259667
-0.00220657
-0.00439856
-0.00242453
-0.00103886
0.00319958
0.00136664
0.0021855
-0.000127089
-0.00906568
0.0074209
0.00939779
-0.0102852
-0.00499939
0.00700951
0.000805054
0.000417644
0.00203559
1.02444e-05
-0.000921912
0.000545627
-0.00583466
-0.000690448
0.000671572
-0.000693683
-0.00150232
-0.000146948
0.000313226
-0.000166277
-0.00406215
0.00201027
0.00390561
-0.000632283
-0.00084584
0.00125057
0.00372974
-0.00202816
0.00731267
-0.00827823
-0.00631525
-0.00404644
0.00507473
0.00258084
0.000495225
0.00481024
0.00659807
-0.00101486
0.00027526
0.00232141
-0.00154182
-0.00343162
-0.00157867
-0.00101893
0.000116936
-0.00414758
-0.00921245
0.00214084
-0.000323374
-0.000468791
0.000252549
-0.00175302
-0.00258576
0.0027654
0.000208865
-0.00778102
0.00278163
0.00161677
-0.00174167
-0.00119378
0.00340741
0.00411965
-0.00477389
0.00134227
-0.000740692
0.00253638
0.00144738
-0.0036527
0.00367723
0.00139617
0.00120457
-0.00378679
0.00557498
0.00124818
-0.00279
0.0018541
-0.000375619
0.00413204
-9.2604e-05
-0.00320564
0.000423994
-0.000227002
-5.3266e-05
-0.000101377
-0.00137148
0.00161005
0.000575454
0.00398638
0.0001811
-0.00332532
0.00523636
-0.00236581
-0.00194731
0.00431313
0.00322272
0.00186435
0.00147646
0.00225327
0.00463047
-0.000953239
-0.00106979
-0.00299237
-0.000773929
0.0024351
-0.00215984
0.00148408
0.00259423
-0.00104562
-0.00198565
-0.00679357
-0.00148466
9.81578e-06
-0.00100585
0.000996031
0.00176696
-0.00748402
0.00552029
0.00107778
-0.00376971
0.00132304
0.00299259
-0.000411752
-0.00416972
-0.00214553
-0.000146151
-0.00255061
-0.00115296
0.00099154
0.00338749
0.00142275
0.00204653
1.45098e-05
0.00174942
-0.00278626
0.00398231
0.00227004
0.0011855
-0.00345554
-0.000958391
0.00172316
-0.00574839
0.000143312
0.000237095
-0.000380408
-0.00356393
0.00320146
0.00425332
0.00186795
-0.000420573
-5.88945e-05
0.000337154
-0.000566166
-0.00432277
0.0071044
0.00469044
-0.00321397
-0.00105058
-0.000594959
-0.0025112
0.00504758
-0.0120884
0.00478366
0.00315333
-0.00378068
0.00368808
0.00149233
0.00063426
-0.00235105
-0.00242285
0.00897346
-0.0107265
-0.000579846
0.00284989
0.0115403
-0.00992348
-0.000486775
-0.00193775
0.00318723
0.000944809
-0.000130355
0.000588456
0.000689317
0.00169444
-8.43948e-05
0.00306379
-0.00266292
0.00588564
5.41064e-05
0.00238099
-0.00168365
-0.001446
0.00246935
-0.000604999
0.00312996
0.00150051
0.00088735
-0.00109621
-0.00429836
0.00560225
-8.19638e-05
-0.00198909
-0.001445
0.000953188
-0.0053218
0.00425202
-0.00851493
0.00419216
0.011598
-0.011174
-0.00157919
0.000620796
0.0011391
0.00444148
0.00460998
0.00205759
0.00214621
-0.000423052
-0.0155518
0.0114042
0.00379986
0.000182447
-0.00292681
0.000431196
0.00381437
0.00431547
-0.000843734
-0.0046869
-0.00279712
-0.00122594
-0.00254378
0.00302532
-0.00259547
0.00434489
0.00172564
-0.00036787
-5.61778e-05
-0.00683242
-0.00311492
0.0053311
0.00319193
9.53098e-06
0.000615112
0.00295922
-0.00147514
0.00785466
-0.00933932
0.00204283
-0.0005505
0.0030955
0.00168815
-0.00259035
-0.00315804
7.97238e-05
-0.00182139
-0.00321159
0.0024521
0.000697616
-0.00174044
0.00480422
0.0041452
0.00413674
-0.000354308
-0.00326283
0.00167447
0.00176403
0.00108586
-0.00287182
-0.000351751
-0.00243451
-0.0050132
0.00301902
0.000851486
0.000628008
-0.0013687
0.000183033
0.00074148
0.00143783
0.00300662
-0.00295251
0.000768257
-7.89395e-05
-0.00101402
-0.00430779
0.00459601
0.000805267
-0.000162318
0.0014189
0.000275544
0.0058464
-0.00140492
-0.00153904
0.00016111
0.00544114
0.00254487
-0.000487279
0.0026801
0.00192988
-0.0015563
0.00118843
0.000417026
0.000568377
-0.00129176
-0.00114225
-0.00315611
0.00389043
-7.60565e-05
-0.00102995
-0.000123013
-0.000882885
-0.000301489
0.00743492
-0.00324276
-0.00361362
-0.000167062
0.00346738
-0.0026313
0.00377041
-0.000166098
0.00286571
0.00144975
0.00209731
-0.000371675
0.000815082
0.000431238
0.000998343
0.000686359
-0.000450146
0.000393968
-0.000453461
0.0025544
0.00253228
0.0027184
0.00171359
0.00469882
-0.000716283
-0.0022895
0.00143188
-0.000142601
0.00436825
-0.00368603
0.0040181
0.00154681
-0.00155731
0.00400942
0.000686221
-0.0017368
-0.000399126
0.00454433
0.000611857
-7.5751e-05
0.00119057
-0.00266591
-0.00416652
0.000353153
-0.00126383
0.00192091
0.00221583
0.0143586
-0.0113333
-0.00125256
0.00324691
0.000279122
0.00139495
0.00115851
0.00513237
-0.00792949
0.00110616
-0.000301103
-0.000192171
-0.00301942
-0.000132929
0.00197867
-0.000540833
0.00395157
0.000343793
0.000160831
0.00127747
0.00125474
-0.00582395
0.00544727
-0.00247263
-7.7982e-05
0.00603
-0.000446627
0.000367688
-0.000833706
-1.21346e-05
-0.00420695
5.80987e-05
0.00294852
-0.00208875
0.00120586
0.00282649
0.00176952
0.00626625
-0.00039576
0.000299515
-0.00228861
-0.000884051
0.000167768
0.000283099
0.000823058
0.00149139
-0.0123274
0.000449539
-0.000444167
-0.00248264
0.00385079
-0.00946053
0.00621778
0.00118708
0.00127342
0.00014548
0.00102587
0.000369088
-0.00129616
0.000994672
-0.00105357
-0.00395963
-0.00262668
-0.00164341
0.0011587
0.0013957
-0.00328435
0.0017453
-0.0004682
0.000142268
0.000288969
0.00489806
0.00185751
0.000816637
-1.55436e-06
0.0145764
-0.0129019
0.00340125
6.61311e-05
0.000168995
-2.89837e-05
0.00427624
0.00019216
0.00302957
-0.000112992
-0.00353915
0.00346309
-0.00420968
0.00128233
-0.00168305
0.00339664
0.00205502
0.00231323
0.0020064
-0.000459584
0.00141305
0.00154617
0.00765236
-0.0105242
0.00337453
-0.00679283
-0.00875894
0.00047895
0.00284739
-0.000315103
0.00232637
0.00356807
6.65174e-05
-0.000342657
0.00358957
-0.000337829
0.000705517
-0.00152187
0.00146556
0.00116979
-0.000267797
0.0003259
0.000832607
-0.000682479
3.0188e-05
-0.00371622
0.00420167
-0.00113556
0.0012805
0.000210883
0.00324309
0.00386646
8.51082e-05
0.00382454
0.000757148
0.00309364
0.000528809
-0.00281831
6.73522e-05
0.000363843
-0.00467501
-0.00298923
-0.00453691
0.0136021
-0.0137682
0.000329404
0.000925332
0.000616742
-0.000167203
0.00241487
-0.00658139
-0.00551462
0.00764175
-0.00142397
0.000632441
0.00539756
0.00267621
-0.00120721
0.00159515
0.00385212
0.000361065
-0.000142355
-0.00021871
-0.000781878
-0.00504207
0.000614869
-0.0017028
-0.00581522
0.00105119
0.00273529
0.000294278
0.00250956
0.00476385
-0.0089708
0.000615188
0.000870723
-0.00216248
0.00307038
-0.000207516
0.00358205
0.00080454
-0.00343122
0.000271915
-0.000300899
-0.0029999
0.00306604
0.000641501
0.000180617
0.00109685
0.000463189
-0.00158558
0.00286791
0.00227571
-0.00474151
0.00374045
0.000535788
0.00355136
0.00116201
0.00181106
0.000106583
0.000254483
0.00150855
-4.29846e-05
-0.000615497
0.00294187
-6.70446e-05
0.000772561
-0.00576033
0.000317587
-0.000486453
-0.000866074
0.0166529
-0.0117548
-0.0017598
0.000243958
-0.000177441
0.000700177
-0.000252549
0.000223252
-0.000345386
0.000714474
0.000871813
0.000401605
0.000370368
-0.00458004
0.00297407
0.000408859
-0.000247724
7.75558e-05
0.000170169
0.00288612
0.00827419
0.00171943
0.00699271
0.00307318
-0.00994704
0.00852307
0.000204871
0.00110595
0.00121286
0.00298881
-0.00201377
-0.0011289
0.000266422
0.000862479
-0.00343638
-0.000545627
-2.05396e-05
0.0033127
0.000511833
7.67552e-05
0.00382556
-0.00334585
-5.49144e-05
0.00273112
0.0020632
-0.000650152
-0.000284891
0.00154389
-0.00170829
0.000164401
0.00153991
-0.00149571
0.00137269
0.000751462
-7.04346e-05
-0.000156567
0.00670584
0.00129947
-0.00144207
0.00506498
-0.0135419
0.00674902
0.0011565
-0.00414573
0.00352713
0.00049379
0.000121398
0.00179944
0.000476275
0.00273206
0.000338322
0.000121607
0.000493262
0.0023678
0.000698237
0.0162988
-0.0130557
0.00266208
0.000467784
-7.38157e-05
-0.00058802
0.00239908
0.000917045
-0.000189933
-0.00639146
0.00384849
0.00175645
-5.58336e-05
0.00139277
-1.77995e-05
0.00110982
-0.0026317
-0.00627812
0.00507091
0.00407696
0.00362271
0.00122976
-0.00169796
-0.00236398
-0.00223827
0.00270145
-0.00184819
-0.00712261
-0.000561633
0.000902649
0.00193396
-0.0011614
-0.00736281
0.00235384
0.00230396
0.000582161
-0.00227472
-0.005232
0.00240533
-0.00133346
-0.00107186
0.000834916
0.0038515
-0.00134194
-1.22383e-05
0.000254434
0.001465
-0.00158037
0.00112691
0.00141809
-0.00317789
-0.0134339
-0.000502427
0.004544
0.000684894
0.00228918
0.00324389
0.00126402
-0.0019465
0.000909609
-0.00565112
-9.38489e-05
0.0011289
-0.00114104
0.00504581
-0.00149445
1.93153e-05
5.74399e-05
0.015748
-0.0072249
0.000302391
0.00085962
0.00298555
0.00105715
-0.00187741
0.000395985
-0.000191114
0.00448843
0.0048068
-0.0105671
0.000795653
0.0025742
0.00441851
-0.00367043
0.00264228
0.0043325
0.00394169
0.00367371
0.000140713
0.0142489
-0.0135487
0.00179841
-0.00381219
0.00531329
-0.00148773
0.00170944
0.000952639
0.00193536
0.00159178
0.00218571
-0.00105266
0.00606089
0.00968708
0.00165344
-0.00499929
0.000456423
-0.000456423
0.00060748
0.00114104
-0.000948876
-0.00179432
0.00249255
0.000496186
0.00126026
0.000154255
0.00030277
0.00163119
0.00090714
0.00251752
0.0150315
-0.0083257
0.0026901
-0.00656301
0.00316995
0.00189504
-0.000193454
0.00013762
-0.0012136
0.00119314
-0.000589973
0.00198275
0.000698755
0.00517896
-0.00133047
0.000186371
0.000919578
0.00165412
-0.0025202
0.0103934
-0.00862715
0.00180911
0.00140425
-0.000104787
0.000649332
-0.000667132
0.000632314
0.00172153
0.00104599
0.00196118
-0.000136014
0.000601546
-0.00249229
0.00370387
-0.000906559
0.000200544
0.000706015
0.00441624
-0.00117235
-9.14519e-05
-0.00137948
-8.35018e-05
-0.000223252
0.000115632
0.00238109
-0.00144322
0.000307664
0.00381885
0.00780664
-0.000212311
0.00130503
0.000758167
0.000856703
0.00212885
0.00292149
-0.00276335
0.00574415
0.00836019
0.00364766
-0.00100538
0.0022427
-0.00451742
0.000342862
-2.52747e-05
-0.00297852
-0.0105633
0.00070773
-0.00807054
-0.00568373
0.00170622
-0.00693822
0.0129371
-0.00839309
0.000458218
0.0108803
-0.0132443
5.91499e-05
8.15635e-05
-0.000433934
0.00369123
-2.53352e-05
0.000776797
0.000646078
0.00153964
0.00244848
0.00112946
-0.00825207
0.000262254
0.000533399
0.00134102
0.00115153
-0.00943767
0.00229366
-0.000207676
-0.00394489
0.000237039
-0.000237039
0.000894243
0.00241206
0.00126165
0.000399874
0.00190634
0.00308577
0.00198245
-0.0030351
-0.000292382
-0.00266842
0.00288776
-0.000370239
-0.000107162
0.000266496
-0.000159333
0.00235814
-0.00602857
0.000660696
-0.00156949
-0.0012885
0.00219564
0.00247531
0.00461138
-6.47498e-05
0.00202593
-0.000902049
0.00253324
0.000407319
0.00140179
0.000599152
0.0113464
-0.00165934
0.00357019
-0.000880093
0.00109259
0.00430709
0.00241507
-0.00362867
0.000841993
-0.000604954
-0.00264115
1.02333e-05
0.000948876
-0.000234403
0.00133259
0.00188238
0.00212885
-0.000361523
0.000225509
0.00932992
-0.00813678
-0.000136533
0.000835288
0.0020641
0.00454478
-0.000840906
0.00921199
0.0011814
-0.000466588
-0.000279959
0.00982727
-0.00202063
-2.30408e-05
-5.07749e-05
0.00275346
-0.00524575
0.00475786
-0.000939014
0.0017691
0.00258471
0.000458922
0.000587068
0.00207437
0.000847123
-0.0116057
0.0016905
0.00075798
0.000544385
0.00174927
0.000992322
0.00292431
-0.00430379
0.00442948
-0.000738246
-0.00053775
0.00208402
-0.00649523
-0.000316315
-8.26642e-05
0.00138769
-0.000930496
0.00208203
0.00756269
0.000797508
0.00287667
0.000936834
0.00126514
-0.00031919
0.000777408
0.00349363
-0.000407865
-0.000320519
0.00222686
0.00559821
0.000145945
0.00132026
0.00034374
-0.00017934
-0.000405
-9.74273e-05
0.00266814
-0.00171958
0.00333602
-0.00176396
0.00211692
0.00035839
0.00366468
-0.000620031
0.000760689
0.00177255
-0.00114401
0.010356
0.0102024
0.000577194
0.00170541
6.26729e-06
0.000393606
0.000624157
0.00816794
0.00391695
0.00494572
-0.00761414
0.000924726
0.00280926
-0.00849299
0.000124338
0.000219403
0.000524177
0.0013582
0.000231777
0.00689163
-0.00228024
8.46837e-05
0.00124791
-0.00412897
0.00326312
-0.00720802
0.00148647
0.00185076
0.00349047
0.000266187
0.00179791
0.00205112
-0.0103032
-0.00342206
-0.00714127
-0.00601942
0.00055945
-0.000704366
0.00350488
-0.00507437
0.00143102
0.000697826
0.00275539
0.00475628
-0.000449184
-0.00117152
-3.70343e-05
-7.59577e-05
0.000516097
-0.00276545
0.00874408
0.000492698
0.000401545
0.00107977
0.00170906
-0.00202459
-1.62928e-05
0.00102417
-0.000450853
-1.57348e-05
-0.00319105
0.00172307
0.00639571
0.00487099
-0.000497004
0.00258102
0.00363877
-0.00627992
0.000207586
0.00187444
0.00195686
0.00227815
0.000882568
-0.00077319
-0.00866448
-0.000153019
-0.000126941
-0.000950265
0.00227053
0.00231364
0.00122326
0.00172986
-0.0123789
0.00490222
0.000112796
0.00255535
-0.000473593
0.00173873
0.000326556
0.00196521
0.00169947
-9.73353e-05
0.000424176
-0.000798902
0.00049391
-0.00698914
-0.000781705
0.00248712
-0.00160698
0.000648183
0.000344139
0.00323176
-0.00229493
0.00104179
0.000407934
0.0018007
0.00211626
0.00137717
0.00385305
-0.000517036
0.000234403
0.000542395
0.00315545
0.00501249
0.000905419
0.00258505
0.00101621
0.00136292
-0.00146771
0.000762592
0.00072388
-0.000753579
0.00350897
-0.000181034
-0.000305419
-0.000801996
0.000266766
0.000535231
-0.00124102
0.00301357
0.00414951
-0.00591347
0.00116525
0.000951521
-2.28722e-05
0.00141057
-0.00249084
0.00419989
0.0048005
0.00540191
0.00146771
-0.00168002
-0.00136292
0.00127147
-0.00190496
0.00292913
0.00146042
-0.00712023
0.00340387
-8.72398e-06
0.000240501
0.00207801
-0.00356329
0.00444586
0.0010571
-0.000432943
-0.00211395
0.00168002
-0.000896478
0.00285333
-0.00151699
0.00149445
2.25373e-05
7.26771e-05
0.00044342
0.000257458
0.00161699
0.0130704
-0.00271445
0.00168455
-0.000135665
0.0112054
-0.0024613
-0.0011289
-9.59808e-05
0.000365565
0.00436167
-0.0103811
0.00350017
-0.00137791
0.00310776
0.00199619
0.000251031
-0.000526752
0.00539774
-0.00413132
0.00441505
-0.00854401
0.00429775
0.00246896
-0.000190817
0.00302168
-0.00240634
-0.000924861
0.00795595
0.00930425
-0.00290854
-0.000955055
-0.002236
0.00183147
0.00131433
0.00110921
-0.00279297
0.00454762
-0.00731307
-0.000921328
0.00126547
0.00101813
0.00448574
0.000158439
0.00105807
-0.000731517
-0.00407514
0.00448307
0.00240634
-0.00294409
-0.00243881
0.00345502
0.000636604
-0.00127147
0.0010638
-0.000228857
0.000139722
8.91349e-05
0.00195193
-0.0017323
-0.00324998
-0.00331523
0.00871714
-0.0104112
-0.00427639
-0.00602679
0.000328195
0.00795669
-0.00305447
4.79747e-05
-6.42676e-05
0.000379289
0.000785957
0.00135429
0.00294409
-0.00356412
0.00049032
0.000228857
-0.000343793
0.000114936
0.000810399
0.000231391
0.00110317
0.00478537
-0.00639235
0.00037072
-0.0129409
0.00165005
0.00136352
0.00112978
0.0010509
0.00975521
0.0012503
0.000210115
-0.000327193
0.000147853
0.000496486
0.00849094
0.00684295
0.00150149
-0.00471186
0.00566338
0.00121711
0.000536732
0.000873834
-0.00513779
0.0072158
-0.000542395
0.00094394
-0.00382675
0.00419232
-0.00145677
0.00307376
-0.00191439
0.00359894
0.00356412
-0.00426848
-0.00555662
0.00905678
0.00139656
-0.000424621
0.00074748
-0.0010638
-0.00673355
0.0146895
0.000115468
-0.000185903
0.00119337
-0.00689246
0.00991414
0.00125858
-0.00100755
0.00504815
-0.00524193
-0.0018783
0.00105949
0.00586639
-0.00455207
0.00587045
-0.00246658
-0.00797025
0.00980172
-0.00275831
0.00386753
7.19415e-05
-0.000179104
-0.0011281
0.0123385
-0.00362135
-0.00818547
0.0092036
0.00630827
-0.0134495
-9.40923e-05
-4.15725e-05
0.00068588
0.00361657
-6.00751e-05
-0.0109646
0.0154504
0.000656321
0.00589879
-0.0100301
-0.000223252
0.00078989
0.0012063
0.000696705
-0.00779188
0.00842849
-2.80016e-06
-0.00747793
0.000234103
0.00052706
0.00426848
-0.00506739
-0.00264522
-0.00333938
0.0038297
0.00214418
-0.00658334
-0.00379775
0.00560493
-0.0106672
0.0070459
0.00372486
0.00499139
-0.00362787
0.00281598
0.000728607
-0.00607059
0.0191818
-0.00942656
0.00320381
-0.00125188
-0.00118846
0.00141985
7.70098e-05
-0.0090488
0.00579881
-0.00738628
0.007757
0.000687312
0.000415857
0.00165918
-2.05396e-05
0.00132269
0.00216432
0.00851453
0.00194389
0.0146146
-0.00777161
0.000650145
0.00562038
-0.00841335
0.000252312
-0.000127974
0.000284346
-0.000168878
0.000897427
0.0168926
-0.0084017
0.00161625
0.000109957
0.000852937
0.00148839
-0.000962661
-0.000525726
-0.00262263
0.00375241
0.00141172
0.000439326
-0.0126101
-0.00256106
0.00395762
-0.00169269
0.000976339
7.45603e-05
0.00315849
-0.001657
0.00598993
-0.00772223
-0.00279116
0.00398454
-0.00338541
0.00103787
-0.00324412
0.00446123
0.000934766
-0.00211989
0.000786429
0.0117314
-0.00668323
0.0217479
-0.014702
-0.00094394
0.00110238
0.00746608
0.00506739
-0.00599225
0.00208403
0.000989727
-0.0148862
0.0155721
0.00113815
-7.86683e-05
0.00107636
0.0258319
-0.0173174
0.0010422
0.00621286
0.00022592
-0.000153979
0.00073723
0.000480841
-0.0178525
0.0234574
0.000564196
-0.00133971
0.00221354
-0.00675733
0.00741365
0.00329033
-0.00337323
0.00406993
4.00171e-05
-0.00948918
-0.000922022
0.0223355
-0.0148694
-0.000402417
0.00395977
-0.00402531
0.000397433
-0.0211154
0.0248403
0.00212766
-0.000229871
0.000456474
-0.00782102
-0.00220909
-0.00144264
0.00200725
-0.00148019
0.0195932
0.00623873
-0.000113726
0.00235693
-0.000862479
0.00389547
0.0187849
-0.0125721
0.00501813
0.000999678
0.00094697
0.00037572
0.00489116
-0.0116188
0.00053586
0.00769352
-0.00487753
-0.0113675
0.000508289
0.00136283
0.000804476
-0.000427431
0.00689904
-0.00954426
-0.000193328
-0.013166
0.0056881
-0.00240634
0.000109929
0.00043592
-0.0219556
0.0281943
0.00046903
0.000428398
0.0039155
-9.64973e-05
0.00101029
-0.00604398
0.00689691
0.00234202
-0.00843466
-0.00450621
0.0258276
-0.0208095
-0.0246903
0.0252545
-0.00712035
0.00599225
-0.000228857
-0.00138298
0.00145754
8.03114e-05
-0.000259415
0.003872
3.68675e-05
-0.00280279
0.00384066
-0.0189784
0.015593
0.00324082
0.000716806
0.0144216
-0.0104618
-0.00340636
0.000390361
0.00183881
0.00037473
-0.0010638
-0.00736722
0.000149979
0.000208807
-0.000128495
0.00423054
0.000350253
0.00118175
-0.00411791
0.00455724
0.00184005
-0.0013592
-0.00455724
0.00528584
0.00304161
-0.00230438
-0.00110238
0.00117939
-0.000152832
-0.000250931
0.000122957
-0.00528584
0.00694503
-0.013056
-0.000393571
0.000168878
-0.000128861
0.00184952
-0.00252389
0.00360025
-0.000650145
0.000225525
-0.00694503
0.00910934
0.0217398
-0.0178243
-0.00910934
0.0110532
-0.00151431
2.52747e-05
-1.70979e-05
-8.17682e-06
-0.0110532
0.0126695
0.00136967
-0.000120915
-6.01195e-05
0.000930288
0.0271433
0.00105106
-0.0126695
0.0140812
-0.00259904
0.00340351
0.00113733
-0.000202568
-0.00183593
0.000691295
-0.0257617
0.0306528
0.00154604
-0.0316522
0.0339942
4.62255e-05
-0.000159952
0.00446832
-0.00372157
-0.000746751
0.00112101
0.000241818
0.00411791
-0.00372048
0.0327904
-0.0288949
-0.000103078
0.00992181
-0.00891153
0.00841062
-0.0106197
0.00221453
0.000944006
0.0045191
5.4828e-05
-0.0140812
0.0151234
-0.0145052
-0.00272174
-0.0098884
0.00154941
-0.00742789
0.00788436
-0.000540033
0.000359854
0.0181946
-0.0163451
-0.00225815
-0.00113364
-0.0281453
0.0247389
0.00191234
-0.000940016
-0.000972322
0.0239498
-0.0200778
0.00687268
-0.00856537
0.000370309
-0.0339128
0.0340628
-0.0028908
-0.000419013
0.000809375
0.00372048
-0.00328456
-0.00292899
0.00330372
-0.00321055
0.00392736
0.00328456
-0.00277627
0.00614601
-0.00798194
-0.013978
-0.00752277
0.0013816
-0.0103214
-0.00129737
0.0227135
-0.00712052
-0.0151234
0.0161231
0.00113818
-0.00361874
0.00431003
0.000630112
0.00277627
-0.00224041
0.0022281
-1.35696e-05
-0.000530976
0.00175794
-0.000578966
0.000474526
-0.000849553
0.00061181
-0.0168858
0.00551828
0.00246992
8.14096e-05
8.08316e-05
-0.000233664
0.0153463
0.000175655
-9.4823e-05
-0.0111977
0.000553134
-0.00276551
0.0250009
0.0200778
-0.0191475
-0.00161643
0.00279817
0.000128861
-7.40326e-05
0.00308085
0.000222868
0.0163582
-0.0168982
4.71594e-05
-0.00117939
0.00121626
0.000315816
-0.000545687
0.00117223
0.00037718
-0.0130431
-0.0143946
-0.000123707
-0.0101437
-0.000476019
-0.0114411
0.00224041
-0.00189016
0.00524553
-0.00750368
0.00154354
-8.60034e-05
0.00278615
-0.000316229
-0.00367981
0.00415434
1.31169e-05
0.00306728
0.00198382
0.00134098
-0.00932494
0.00781063
-0.0161231
0.0174927
0.0019816
0.000630219
-0.00995154
0.00881791
-0.00356104
0.00417285
-0.00020738
8.36729e-05
-0.0356902
0.0327994
-0.000225524
0.000122446
0.00609727
-0.00667624
0.00316333
-0.0308179
0.0236974
-0.00273641
0.0191475
-0.0187772
0.00345482
-0.000387537
0.00982156
-0.0102976
0.00189016
-0.0015303
0.000366322
0.00347223
0.00313859
-0.00607896
-0.00712866
0.00867471
-0.00345497
0.00367784
-0.00162744
0.000106593
-0.000170861
2.52747e-05
-0.00216075
0.00279086
0.0161454
-0.0189109
0.00766629
-0.00568469
0.0292786
-0.0281404
0.000699363
7.40326e-05
-2.68732e-05
-0.0250009
0.0263825
-0.00379747
0.00442769
-0.00503366
0.00819699
-0.0263825
0.0281404
0.0015303
-0.000977169
0.00146574
-0.000521736
-8.44229e-05
-0.0292786
0.02936
-0.0014064
-0.000129986
0.00358065
9.71884e-05
0.00763812
-0.00449954
0.000605506
-0.0120466
0.000375376
-0.000752818
0.000990049
0.0259938
-0.0106475
-0.0174927
0.0169618
0.00319312
0.000755701
-0.0200778
0.0187772
-0.0187641
-0.000507037
0.0147961
0.00260447
0.0025123
-0.0149523
0.0145588
-0.0107257
0.00042815
-0.00376996
0.00413628
-0.0195843
0.00560627
-0.00353458
0.00423394
-0.0208617
0.00590939
-0.0101202
0.000637427
0.000977169
-0.000675933
-0.000301236
0.000425901
-0.013469
-0.014066
0.000148042
-0.000150843
-0.000122446
3.80234e-05
-0.0116207
0.00089311
0.00716968
-0.00397657
-0.0178048
0.0203171
-0.0195322
0.0205222
-0.00121626
0.00113025
0.00752277
-0.00837232
0.00267015
-0.0275307
0.0134647
-0.0327482
0.0221007
-0.00397716
0.00435254
-1.97896e-05
-0.0134492
0.0186722
-0.0160677
-0.02936
0.0277325
-0.000979099
-0.00752277
-0.000754744
0.0173476
-0.020084
0.0096341
-0.00976409
-0.00355736
0.00365455
-0.0144144
-0.00621711
0.00820093
-0.00905085
-0.0203629
0.0189565
-0.036223
0.030144
-0.000146982
5.21587e-05
-0.0152555
0.000676579
-0.0271478
0.0118923
0.000867373
0.000784904
-0.00334937
0.00424248
0.0187641
-0.0195169
-0.0127346
-5.35304e-05
-0.0143609
0.00976409
-0.00933594
0.000159122
0.0170963
-0.0144262
0.00741099
-0.00375644
-0.00342355
0.00343442
-0.0096341
0.00912706
0.00673216
-0.00609474
-0.0136056
0.019515
0.000977169
-0.0136831
-6.33089e-05
-0.00156328
-0.0240403
0.0104347
-0.0138994
0.00227869
0.00353015