/*--------------------------------*- C++ -*----------------------------------*\
  =========                 |
  \\      /  F ield         | OpenFOAM: The Open Source CFD Toolbox
   \\    /   O peration     | Website:  https://openfoam.org
    \\  /    A nd           | Version:  8
     \\/     M anipulation  |
\*---------------------------------------------------------------------------*/
FoamFile
{
    version     2.0;
    format      ascii;
    class       volVectorField;
    location    "0.7";
    object      U;
}
// * * * * * * * * * * * * * * * * * * * * * * * * * * * * * * * * * * * * * //

dimensions      [0 1 -1 0 0 0 0];

internalField   nonuniform List<vector> 
1924
(
(0.0388178 -0.00244764 2.10246e-17)
(-0.00679072 -0.0116253 2.08014e-17)
(1.19734 -0.795129 6.60122e-18)
(1.29816 -0.519325 5.24079e-18)
(0.526512 -0.020172 1.64142e-17)
(1.54774 -0.723126 7.6573e-18)
(1.79453 -0.55065 5.16925e-18)
(2.03552 -0.953762 6.96068e-18)
(2.01214 -0.807482 6.23953e-18)
(1.16631 -0.637431 4.71318e-18)
(2.16081 -1.16832 6.03939e-18)
(1.94742 -1.0522 6.19086e-18)
(0.276223 -0.26467 5.41614e-18)
(2.08297 -1.3273 6.82993e-18)
(4.45042 -0.886884 3.03559e-18)
(4.49176 -0.494335 2.64574e-18)
(0.316011 -0.298185 6.08195e-18)
(1.86915 -1.14475 1.22353e-17)
(0.0822232 -0.0539215 2.11944e-17)
(1.86453 -1.16376 1.06927e-17)
(0.136234 -0.173656 5.03442e-18)
(2.30056 0.549416 1.06251e-18)
(0.383328 -0.270493 6.67179e-18)
(1.95303 -0.780407 9.43617e-18)
(2.18275 0.558533 5.58776e-19)
(0.650473 -0.175127 1.17595e-17)
(0.58231 -0.386217 1.11378e-17)
(0.99166 -0.146466 9.79637e-18)
(1.64344 -0.0533026 1.11001e-17)
(0.47892 0.569555 2.44521e-17)
(0.424225 -0.258917 6.74385e-18)
(1.58897 0.394055 4.11489e-18)
(0.052104 0.147116 1.9529e-17)
(0.383728 -0.286669 4.1729e-18)
(1.09732 -0.226909 9.92043e-18)
(0.376564 -0.113176 5.01515e-18)
(1.36965 0.162991 6.05732e-18)
(1.747 -0.310864 7.95887e-18)
(0.361119 0.440339 2.4869e-17)
(0.420502 -0.289433 5.19152e-18)
(1.08002 -0.054178 7.13427e-18)
(0.186349 -0.192362 4.50097e-18)
(0.876587 0.0258244 8.21639e-18)
(0.399153 -0.285972 4.18941e-18)
(1.14473 -0.326754 8.66113e-18)
(1.96624 0.0928369 1.21259e-17)
(0.0262169 -0.119127 1.76569e-17)
(1.29062 -0.177362 3.25128e-18)
(0.219871 0.092831 1.90562e-19)
(0.0574533 -0.0780301 2.43336e-18)
(0.884089 0.00503943 1.65613e-17)
(0.22559 -0.261821 6.35248e-18)
(2.77345 0.674985 1.31255e-18)
(2.07084 -0.0991151 4.25043e-17)
(2.36039 0.0122376 1.30575e-17)
(1.08916 -0.258465 2.17586e-18)
(0.0822295 -0.0639439 2.05987e-17)
(1.18694 -0.331849 5.10562e-18)
(0.974053 -0.274133 6.83518e-18)
(2.35286 0.328112 1.06248e-17)
(0.442552 -0.189491 1.83946e-18)
(3.99993 -0.307214 2.72598e-18)
(0.442798 -0.148103 1.49661e-18)
(0.427159 0.693723 3.59731e-17)
(1.10433 -0.0990833 1.32868e-17)
(1.24435 -0.156903 1.62954e-18)
(3.26233 0.855979 2.54476e-18)
(0.404295 -0.0944384 8.68762e-18)
(2.10263 -0.137769 8.70347e-18)
(0.568914 -0.0234415 2.80943e-18)
(0.164365 -0.202344 1.12643e-17)
(4.04056 0.151854 1.74754e-18)
(0.306268 0.345336 2.71369e-17)
(0.629304 0.42779 1.7747e-17)
(0.558869 0.152426 9.43111e-18)
(0.549108 -0.66546 1.2929e-17)
(1.33351 -0.124659 8.69257e-19)
(0.815669 0.0305699 4.82879e-18)
(1.2807 -0.084727 4.20145e-18)
(0.551334 -0.105218 1.66342e-18)
(1.6859 -0.699482 6.19125e-19)
(0.588781 -0.390887 1.02308e-17)
(0.581423 0.0683792 1.00015e-17)
(0.13072 -0.194615 6.50247e-18)
(0.0519823 0.120052 2.01834e-17)
(0.425342 0.0114734 9.42914e-18)
(1.0926 -0.223297 5.07152e-18)
(3.80544 -0.915374 4.77162e-18)
(0.107599 -0.0297519 1.28975e-18)
(0.219464 -0.0905714 8.88874e-18)
(2.68667 0.589054 7.40026e-18)
(0.772953 -0.372715 8.69942e-18)
(2.46728 -0.22907 9.59336e-18)
(2.43689 -0.741514 7.59737e-18)
(0.282623 -0.213773 8.85672e-18)
(0.300175 -0.310426 6.32045e-17)
(1.32952 -0.0879745 6.35704e-19)
(1.81906 -0.557452 1.41042e-18)
(1.8767 0.116745 1.53219e-17)
(0.107415 -0.267141 7.12275e-18)
(1.35765 -0.851818 9.4929e-18)
(0.239026 -0.257015 7.91042e-18)
(1.92668 0.284856 9.55273e-18)
(1.07414 -0.311989 1.14803e-17)
(2.077 -0.75816 8.07314e-18)
(1.12475 -0.320579 1.2954e-18)
(1.67406 -0.579464 1.05979e-17)
(2.46633 -0.865238 8.67147e-18)
(2.33236 0.217096 1.26064e-17)
(2.16902 -0.502464 7.15412e-18)
(1.4192 -0.0822987 6.27157e-19)
(2.14386 -0.296378 6.40301e-18)
(1.29529 -0.267771 1.103e-17)
(0.626938 0.333573 1.57769e-17)
(1.33398 -0.0530854 3.69778e-18)
(0.0727747 -0.12623 6.19121e-18)
(1.32814 -0.936382 9.33711e-18)
(5.0939 -0.32003 3.21418e-18)
(0.721307 -0.106905 1.01691e-17)
(1.33682 -0.101629 1.37095e-18)
(0.0709279 0.129153 2.01831e-17)
(0.189045 -0.00191989 -2.47932e-19)
(0.122202 -0.114541 2.8794e-18)
(0.152375 -0.103296 7.04533e-18)
(3.6754 0.731657 1.70246e-18)
(1.61327 -0.812641 1.09212e-17)
(1.85107 -0.702323 1.31177e-17)
(0.845614 -0.15402 1.38224e-18)
(2.08703 -0.456636 6.73223e-18)
(0.155056 -0.0315185 -4.88644e-19)
(1.41384 -0.111717 6.61755e-19)
(1.53113 -0.736382 1.05785e-17)
(0.652346 -0.421645 1.2102e-17)
(0.713019 0.162337 1.22192e-17)
(0.286068 -0.260991 7.96738e-18)
(1.75378 -0.644127 8.4376e-18)
(1.79498 -0.478315 5.65173e-18)
(1.88316 -0.425863 6.86771e-18)
(1.79108 -0.806279 1.15819e-17)
(1.32979 -0.375177 9.12441e-18)
(1.16679 -0.178893 1.72551e-18)
(3.65373 0.352267 2.11507e-18)
(0.0947204 -0.204829 4.59973e-18)
(0.0452275 0.267266 1.86891e-17)
(1.68308 -0.96272 9.77874e-18)
(0.134653 -0.0345457 -7.27733e-19)
(2.09282 -0.929393 9.34852e-18)
(0.100501 -0.238049 8.79893e-18)
(2.34676 0.30777 8.27209e-18)
(0.525823 0.0383872 1.14365e-17)
(0.310784 -0.00918229 7.40008e-18)
(0.161166 -0.000432564 3.58523e-19)
(0.942068 -0.512473 9.05892e-18)
(1.74659 -0.765642 1.02949e-17)
(1.91088 -0.961037 9.39381e-18)
(1.49479 -0.910053 1.03873e-17)
(0.181343 0.0221358 -9.51668e-19)
(1.55017 -0.666722 6.3078e-18)
(1.48953 -0.151221 8.41367e-19)
(-0.00514704 -0.238175 5.24293e-18)
(0.735969 0.471013 2.08193e-17)
(1.16708 -1.02506 1.33295e-17)
(1.94646 -0.839332 9.03842e-18)
(0.199333 -0.00652994 7.19707e-19)
(-0.317599 -0.0521498 3.37065e-18)
(1.58319 -0.626761 8.9483e-18)
(1.58695 -0.764223 8.73965e-18)
(0.186848 0.0322682 -8.68763e-19)
(1.3294 -0.0935733 1.14707e-18)
(1.78982 -0.524877 7.44339e-18)
(0.113376 0.144683 2.03665e-17)
(2.43884 -1.15977 8.40721e-18)
(1.05414 -0.427798 -9.72301e-19)
(1.27547 -0.0364612 1.40851e-17)
(1.09127 -0.0826029 9.80722e-19)
(2.67145 -0.751538 8.85968e-18)
(0.603708 0.745832 3.14455e-17)
(0.0346142 -0.350791 1.79024e-17)
(0.337107 -0.00611788 6.49516e-18)
(2.72605 -0.717095 6.82847e-18)
(1.39653 -1.19456 1.15422e-17)
(5.55377 -0.447128 3.18124e-18)
(1.10817 0.0816597 6.00042e-18)
(1.81669 -0.858958 1.13692e-17)
(0.248367 0.10319 -4.43973e-19)
(0.0371785 -0.135521 1.60991e-17)
(1.94775 -0.670749 1.07507e-17)
(1.82888 -0.987493 9.1567e-18)
(1.36399 -0.136927 6.03372e-19)
(0.93184 0.296323 1.52992e-17)
(2.49722 -0.923561 9.09576e-18)
(2.33505 -1.28034 7.81072e-18)
(1.51214 -0.19316 8.57895e-19)
(2.82733 -0.936008 9.81217e-18)
(2.64396 -0.467372 1.02985e-17)
(0.150095 -0.0052346 6.40794e-19)
(1.86757 -0.457194 1.02919e-17)
(2.51834 -0.755538 8.23944e-18)
(1.82853 -1.03158 1.16536e-17)
(3.0115 -0.29342 6.33466e-18)
(0.0484357 0.260584 1.96386e-17)
(0.444861 -0.0752056 1.58457e-17)
(1.6263 -0.554685 6.46385e-18)
(2.40782 -1.56203 8.52839e-18)
(0.741115 0.0283661 1.80159e-17)
(1.47377 -1.09543 9.69005e-18)
(2.6812 -1.23789 9.97791e-18)
(1.31094 -0.4733 1.06477e-17)
(0.292122 -0.336382 8.67114e-18)
(0.226051 -0.39991 9.41308e-18)
(0.202696 -0.00990181 1.0816e-18)
(1.71547 -0.484944 7.15594e-18)
(2.12243 -0.633273 1.32523e-17)
(2.61023 -0.423826 1.15537e-17)
(1.68833 -0.88036 9.37875e-18)
(1.05258 -0.194123 5.74521e-19)
(2.17334 0.248627 5.65085e-18)
(2.21059 -0.991121 9.54898e-18)
(2.31331 -1.52894 1.00898e-17)
(0.721676 -0.320644 4.92802e-19)
(1.63584 -1.02978 1.19148e-17)
(0.592159 0.0636339 9.61393e-18)
(1.88755 -0.456475 8.04576e-18)
(2.43873 -0.662014 9.11747e-18)
(2.10513 -1.57318 9.05943e-18)
(1.47143 -0.312721 1.01895e-17)
(1.60507 -0.228564 2.21153e-18)
(1.24452 -0.564501 -5.50038e-19)
(2.882 -0.0912241 1.05611e-17)
(3.03925 -0.158908 7.5693e-18)
(1.05261 0.146713 2.1063e-17)
(2.62427 0.762218 2.12666e-18)
(1.70465 -1.01335 1.14818e-17)
(-0.0926538 -0.339095 1.1432e-17)
(1.28337 0.17691 9.79382e-18)
(-0.0136666 -0.413481 3.76733e-18)
(2.3913 -0.502286 7.02337e-18)
(1.7506 -1.58274 1.15493e-17)
(2.51004 -0.410933 7.43951e-18)
(0.153281 -0.0100541 7.85086e-19)
(6.12556 -0.526336 4.25339e-18)
(1.50905 -0.812634 9.63281e-18)
(2.15823 -0.427357 7.95428e-18)
(1.9143 -0.200922 9.36087e-18)
(0.279446 -0.190403 1.04027e-17)
(0.274629 -0.34861 8.79741e-18)
(1.86685 -1.6084 1.13862e-17)
(1.24644 -0.0375695 8.36404e-19)
(1.04135 -0.000863315 3.06868e-18)
(1.15519 -0.539832 -7.98934e-19)
(0.343988 -0.336215 1.07805e-17)
(0.200619 -0.0144321 1.00969e-18)
(2.61909 0.0743068 1.53783e-17)
(1.71191 -0.509795 2.89515e-18)
(1.35864 -0.174202 6.28716e-19)
(3.35819 -0.626137 7.81014e-18)
(0.761102 -0.25972 1.14437e-17)
(1.79961 -0.287855 7.27132e-18)
(1.52925 -1.15829 1.31618e-17)
(1.55676 -1.61834 1.16643e-17)
(1.48439 -1.13443 1.31125e-17)
(2.92706 -0.243884 8.92964e-18)
(1.26021 0.0428339 1.14158e-17)
(1.1372 -0.12573 7.73213e-19)
(1.55022 0.342557 4.6877e-18)
(0.322176 -0.113704 7.20674e-18)
(0.207249 -0.170159 2.84188e-18)
(0.926003 -0.48369 -8.31776e-19)
(2.61965 -0.330762 1.30308e-17)
(0.078467 -0.267486 1.24383e-17)
(3.25834 0.313664 7.75706e-18)
(0.221795 0.216046 8.54811e-18)
(0.919517 0.248556 1.90519e-17)
(1.46815 -0.468775 7.40854e-18)
(2.73652 0.804214 2.40571e-18)
(1.73797 -0.826058 1.80762e-18)
(1.72675 -1.43357 9.92287e-18)
(0.81914 0.381649 9.91223e-18)
(1.85007 -0.585794 7.84782e-18)
(2.12206 -0.607342 1.15258e-17)
(0.0431541 0.21398 1.82129e-17)
(0.147045 -0.0199213 5.42889e-19)
(2.44175 0.826695 3.25249e-18)
(2.06683 0.214581 1.27148e-17)
(0.0884373 0.0801083 2.07781e-17)
(0.956587 0.303086 1.38904e-17)
(1.65876 -0.29285 1.83593e-18)
(0.182693 -0.0405939 -4.85064e-20)
(1.12028 -1.47133 1.1655e-17)
(1.47458 -0.758985 8.54626e-18)
(3.28393 -0.371761 9.36575e-18)
(0.150655 0.0789171 1.94967e-17)
(0.891175 0.879882 8.14365e-18)
(3.00518 -0.39375 7.13676e-18)
(0.0236904 -0.116876 3.84759e-18)
(-0.260263 0.271272 1.40638e-18)
(3.76525 -0.842691 6.4846e-18)
(1.39478 -0.326854 4.20685e-18)
(0.818349 -0.449316 -3.63884e-19)
(3.48566 -0.45375 6.82225e-18)
(0.126602 -0.0320485 -6.87796e-19)
(2.5271 -0.568204 7.57768e-18)
(2.58017 -0.212938 4.7104e-18)
(1.88571 0.438247 1.66099e-18)
(1.37636 -1.29401 1.17478e-17)
(1.101 -0.42861 8.61368e-18)
(0.233503 -0.178666 2.52991e-18)
(2.45779 -0.488738 2.66965e-18)
(1.69433 -0.213779 7.28117e-18)
(1.04392 0.0599349 7.79734e-18)
(0.4795 -0.324083 1.00321e-17)
(0.600348 -0.162704 1.14299e-17)
(1.80153 0.358555 1.16294e-17)
(2.81366 0.740431 1.884e-18)
(1.44223 -0.213521 2.16768e-19)
(0.257061 -0.201702 3.6434e-18)
(1.62373 -1.1338 1.30962e-17)
(1.15803 -1.3696 1.14162e-17)
(3.00166 -0.0457401 9.61341e-18)
(2.23066 -0.789617 9.93452e-18)
(0.0972737 0.0128144 1.32342e-17)
(3.36011 0.459653 9.87492e-18)
(2.89956 -0.64631 7.27722e-18)
(-0.19383 0.419024 6.29345e-18)
(0.548494 -0.380933 8.79048e-18)
(1.38388 -0.75802 4.04757e-19)
(1.53374 -0.857488 9.12666e-18)
(1.33944 -0.353362 6.32657e-18)
(1.24957 0.0201698 1.46209e-18)
(1.81321 -0.381697 2.48435e-18)
(1.9347 -0.474403 1.11892e-17)
(3.19048 1.07454 2.22125e-18)
(2.71174 0.607157 4.7905e-18)
(1.52439 -1.11257 1.2482e-17)
(0.582192 -0.395732 8.4116e-19)
(0.74409 0.777439 7.9906e-18)
(2.73102 0.619633 4.04052e-18)
(2.55548 -0.29072 1.13512e-17)
(1.32946 0.233706 8.41241e-18)
(3.22753 -0.586493 8.81135e-18)
(1.27347 -0.748356 -5.01409e-19)
(0.405909 0.395083 1.37746e-17)
(2.28183 0.640807 4.84297e-19)
(1.69613 -0.127112 6.93303e-18)
(4.54298 -0.977127 3.79764e-18)
(4.56497 0.341346 1.0814e-18)
(0.43576 0.339513 2.21688e-17)
(3.66512 1.07766 4.27687e-19)
(0.417304 -0.167572 1.13517e-17)
(0.872301 -0.347067 8.4494e-18)
(1.11922 0.00672517 7.09108e-18)
(0.27939 -0.455203 1.29405e-17)
(-0.061166 -0.59055 4.52526e-18)
(3.57124 -0.215851 4.61219e-18)
(0.335314 -0.255897 8.16143e-18)
(1.06556 -0.72635 -4.36572e-19)
(0.153307 0.0966855 -1.34788e-18)
(1.09778 -1.2531 1.03592e-17)
(2.10922 0.181369 4.90815e-18)
(-0.557969 -0.181907 3.1989e-17)
(0.980757 1.21256 1.21591e-17)
(4.19491 -0.626221 4.58479e-18)
(3.14324 -0.392581 3.65296e-18)
(2.80999 0.946779 4.78823e-18)
(1.28305 0.165906 6.18515e-18)
(3.09546 -0.851592 9.76633e-18)
(2.50497 0.743639 1.12528e-18)
(3.22603 0.64421 6.97751e-18)
(1.28593 0.402929 4.24671e-18)
(2.02046 -0.00415332 1.16057e-17)
(2.59766 -0.724361 1.03051e-18)
(2.15265 -0.72825 1.06262e-17)
(1.57086 0.0207521 5.41032e-18)
(6.40039 -0.937285 4.28774e-18)
(0.756318 -0.366445 7.69583e-18)
(0.116855 -0.24914 6.34672e-18)
(4.74552 -0.822408 3.36908e-18)
(4.82804 -0.921199 2.9394e-18)
(1.73887 0.271453 5.2439e-18)
(4.0165 1.13289 -1.14944e-18)
(4.39237 0.758533 2.37449e-19)
(0.944529 -0.673812 -2.08857e-19)
(1.38207 -0.718209 8.99753e-18)
(2.4568 -0.224623 1.41457e-17)
(2.48948 0.0718893 1.07764e-17)
(2.41376 -0.843789 5.70231e-19)
(0.43297 -0.356086 2.44702e-18)
(3.00489 1.09436 4.06528e-18)
(0.721459 -0.363808 8.90598e-18)
(2.32061 -0.867539 1.1025e-17)
(0.156463 -0.451001 4.75312e-18)
(2.60461 0.694607 5.40594e-18)
(1.32328 -0.528636 1.0191e-17)
(3.1606 1.33022 -1.47523e-18)
(1.30359 -0.381792 1.17782e-17)
(0.407174 0.112576 1.01074e-17)
(0.824116 -0.150323 7.06173e-18)
(2.07611 0.453382 2.16058e-18)
(1.8918 -0.444722 2.76825e-18)
(5.02038 0.182753 2.22816e-18)
(0.116917 -0.0339733 -3.0314e-19)
(0.717103 -0.65159 -4.84283e-19)
(1.08334 -0.280576 6.15962e-18)
(2.817 -0.644954 1.12493e-17)
(0.144902 0.020461 -5.6765e-19)
(2.59838 0.609869 6.01437e-18)
(2.06212 -0.932954 6.66848e-19)
(3.43255 1.38339 8.2834e-20)
(1.97572 0.283087 3.6068e-18)
(1.00922 -0.148433 6.43203e-18)
(1.34182 0.925735 1.19068e-17)
(2.42207 0.627518 5.81874e-18)
(1.53434 -1.01859 1.07231e-17)
(1.69595 -1.2926 1.16933e-17)
(1.211 0.0174163 8.10594e-18)
(1.61972 0.395307 7.12603e-19)
(1.56691 -0.94977 8.8193e-19)
(4.14038 -0.52299 3.40635e-18)
(0.535417 0.0749055 1.28509e-17)
(1.40848 0.0234794 1.04724e-18)
(3.72506 -0.537748 3.40819e-18)
(3.36406 0.72921 4.14822e-18)
(1.93502 -0.969944 5.98071e-19)
(0.535854 -0.341175 6.90587e-18)
(1.31646 -0.141192 8.04671e-18)
(3.25433 -0.964644 1.71559e-18)
(1.44509 -0.27959 1.77284e-19)
(0.0452333 -0.475169 1.31508e-17)
(2.44151 0.797038 1.26202e-18)
(1.18939 -0.0985359 7.95317e-18)
(2.6394 0.824595 5.47142e-18)
(1.45653 -0.961187 -3.94175e-19)
(2.04148 0.116431 1.21956e-17)
(1.75687 0.485571 7.88816e-18)
(1.1161 -0.216162 1.1472e-17)
(0.849007 -0.235052 6.57004e-18)
(2.93074 -1.03045 1.25022e-18)
(0.270827 -0.152886 -9.20558e-20)
(1.21487 -1.0401 1.13438e-17)
(1.56806 -0.0479127 7.3001e-18)
(2.3433 0.131514 9.30358e-18)
(0.734003 -0.29187 8.68083e-18)
(2.11245 -0.116677 1.00292e-17)
(-0.303415 0.0489552 -1.35751e-18)
(3.942 1.72859 -1.60738e-18)
(-0.00569715 -0.0775477 7.22397e-18)
(1.76649 0.908364 1.00158e-17)
(0.584841 -0.599561 -5.20011e-19)
(0.987066 -0.449902 1.02785e-17)
(2.82256 1.31941 9.70015e-19)
(5.5103 -0.882256 1.93391e-18)
(2.4944 0.806315 2.84402e-18)
(1.80068 0.264193 1.11969e-17)
(2.06015 -0.54134 2.98826e-18)
(0.755068 -0.222166 8.19817e-18)
(0.607096 -0.129565 1.15986e-17)
(2.41184 -1.14817 3.17631e-19)
(5.5424 -1.07938 1.12608e-18)
(1.29514 0.438594 6.4025e-18)
(5.01127 0.95927 -6.82021e-19)
(1.18473 -0.951918 -7.26094e-19)
(2.17655 0.586556 2.65312e-18)
(0.307193 -0.206053 3.07393e-18)
(0.434287 0.310397 9.60051e-18)
(1.31153 -0.244295 6.99142e-18)
(2.9351 1.40884 -1.52263e-18)
(3.33166 1.91299 -7.72936e-19)
(1.34454 0.35295 1.08479e-17)
(1.01466 -1.30107 9.96186e-18)
(1.07814 -0.0209311 7.57839e-18)
(0.90625 -0.298292 9.45747e-18)
(2.36594 0.728495 4.62971e-18)
(0.106702 -0.484939 8.21086e-18)
(2.21165 -1.19957 1.70757e-20)
(3.19423 0.640154 5.60948e-18)
(1.06225 -0.913559 -4.04987e-19)
(0.219139 -0.529641 1.47226e-17)
(2.2425 -0.943636 8.73968e-18)
(4.33495 1.77699 -1.79795e-18)
(5.69757 0.287112 2.00641e-18)
(2.07925 0.914188 5.84262e-18)
(0.951731 -0.615284 6.83628e-18)
(2.3892 0.477008 5.7861e-18)
(3.63401 2.00832 -1.28884e-18)
(2.35425 0.751134 1.48153e-18)
(1.07542 -0.315308 9.39254e-18)
(0.979971 -0.282736 6.96653e-18)
(7.21021 -1.51578 1.1283e-18)
(2.17539 0.0284472 1.20545e-17)
(1.56115 -0.310836 9.58526e-19)
(0.259177 -0.152961 7.58527e-19)
(1.94211 -0.0833603 1.19399e-17)
(2.19023 0.752518 5.88855e-18)
(1.47551 0.0105498 1.88645e-18)
(3.92708 -1.22122 1.35551e-18)
(1.86609 -1.24605 -1.04531e-19)
(4.83789 1.41465 -1.01363e-18)
(2.48636 0.944023 2.37742e-18)
(0.793888 -0.159571 7.15719e-18)
(0.134004 0.0783755 1.43263e-17)
(3.48391 -1.41124 1.46775e-18)
(5.72969 -0.979383 1.19417e-18)
(2.81616 0.474491 7.04049e-18)
(1.71224 0.0954394 7.88256e-18)
(0.399743 -0.393243 7.68722e-18)
(1.42427 0.540601 1.48355e-18)
(4.86937 -1.11683 1.33422e-18)
(0.763466 -0.301972 1.06394e-17)
(2.41827 0.875243 2.67137e-18)
(2.88273 -1.49251 6.86218e-19)
(0.831887 -0.886115 -8.23794e-19)
(1.69116 -1.20998 2.47693e-19)
(2.57821 1.19301 5.82541e-19)
(1.48342 0.412685 9.87338e-18)
(2.75311 1.738 -1.93862e-18)
(2.97463 1.9486 -8.56396e-19)
(2.07887 0.442827 5.75554e-18)
(0.515371 -0.259619 6.81383e-18)
(0.913365 -1.17262 5.71472e-18)
(5.63198 0.84024 1.06869e-18)
(1.59125 0.486183 4.75413e-18)
(5.35126 -1.13122 5.66069e-19)
(1.36306 -1.19968 -1.00841e-18)
(2.60455 -1.49011 3.98001e-19)
(1.29472 0.593966 6.10108e-18)
(0.651406 -0.134897 8.51859e-18)
(0.357189 -0.648037 1.39078e-18)
(0.609207 -0.317088 4.34386e-19)
(0.759196 -0.351097 1.26099e-17)
(1.51325 -0.102778 7.93113e-18)
(0.354732 0.346214 8.46801e-18)
(2.6621 -0.922488 6.94235e-18)
(2.39612 0.870895 8.14871e-19)
(0.363208 0.12034 9.18329e-18)
(0.817271 -0.290427 7.07449e-18)
(3.35564 2.56813 -1.1228e-18)
(1.19723 -0.552778 6.07617e-18)
(3.21182 0.658101 5.21474e-18)
(0.324771 -0.237482 2.55989e-18)
(1.02495 -0.281796 1.02699e-17)
(2.31723 0.944156 3.51431e-18)
(0.370478 0.553451 3.51143e-17)
(0.610444 -0.229876 1.12031e-18)
(0.711271 -0.833171 2.16883e-21)
(2.13198 -1.54044 -1.54693e-19)
(1.97764 -0.114524 9.94079e-18)
(0.0536737 -0.592959 9.20367e-18)
(0.42682 0.343945 3.44879e-17)
(4.16014 2.54998 -1.40013e-18)
(2.08614 -0.559746 1.90956e-18)
(1.76613 -0.17691 9.4076e-18)
(2.17066 0.636578 2.52106e-18)
(6.22788 0.0687936 2.35023e-18)
(2.23871 0.742166 2.86649e-18)
(0.961593 -0.222106 8.2542e-18)
(0.474295 0.0950014 1.03598e-17)
(0.268949 -0.243426 8.85884e-18)
(0.782709 -0.310779 9.33734e-18)
(-0.26815 0.00531344 3.56119e-18)
(0.197271 -0.604185 1.26305e-17)
(1.25031 -0.0858835 9.62383e-18)
(1.11989 0.423049 5.42093e-18)
(2.82914 -0.713452 1.2326e-17)
(2.192 0.800428 1.05982e-18)
(2.7339 0.505954 5.50245e-18)
(0.406765 0.020724 8.29192e-18)
(1.21878 -1.15148 -5.73335e-19)
(1.58971 -0.145831 2.22305e-18)
(0.0331163 -0.554526 9.2305e-18)
(2.32134 0.974574 4.06659e-18)
(1.93413 -1.51327 -2.03523e-19)
(2.12705 0.0913229 6.62171e-18)
(0.782659 -0.273042 8.28429e-18)
(2.30487 1.31598 2.03394e-19)
(0.489699 -0.83771 -1.72458e-19)
(2.63845 2.3198 -8.79709e-19)
(0.26218 0.0684547 5.79826e-18)
(0.572647 -0.436314 6.77672e-18)
(3.40694 -1.96143 8.44375e-19)
(0.762529 -0.105267 1.1238e-17)
(2.10103 1.01425 5.00123e-18)
(5.6657 1.75324 -1.68988e-19)
(1.14544 -1.25383 5.29597e-18)
(2.39017 1.56052 -1.98223e-18)
(0.789606 -0.511856 -5.12974e-18)
(0.628417 -0.317723 6.23231e-19)
(4.17817 -1.84833 1.09452e-18)
(0.522343 -0.372588 1.0268e-17)
(1.56548 -1.48973 -3.33013e-19)
(0.192475 0.622931 1.64213e-17)
(0.726003 -0.334129 1.17204e-17)
(2.02942 0.690314 3.90202e-18)
(0.0689855 -0.246746 1.85364e-17)
(0.757915 -0.466113 -1.08984e-18)
(0.696577 -0.308053 3.49867e-18)
(3.05556 -1.93301 7.89311e-19)
(2.86888 2.55105 -1.31233e-18)
(1.34111 -0.34178 -7.66077e-20)
(3.70478 2.76133 -1.11198e-18)
(0.0790266 0.236332 8.25544e-18)
(-0.555298 -0.0210883 -6.02616e-19)
(4.59969 -1.85975 6.27475e-19)
(1.82777 0.117645 1.17436e-17)
(0.527039 -0.569209 1.02986e-17)
(2.30576 0.878452 1.70116e-18)
(3.42225 -0.861965 5.31927e-18)
(0.724085 -0.282212 9.30239e-18)
(0.957276 -1.12693 3.60931e-19)
(0.483259 -0.131337 9.10037e-18)
(0.409328 -0.310829 1.08509e-17)
(0.779331 -0.22569 1.15474e-17)
(6.03358 -1.3198 -3.74249e-20)
(0.285891 0.104256 7.54696e-18)
(1.58428 -0.383042 1.21451e-18)
(2.10194 1.22335 4.26256e-18)
(4.73351 2.66524 -1.31511e-18)
(1.13453 0.829941 6.8437e-18)
(1.10496 -0.0863306 7.51857e-18)
(0.286395 -0.399604 -5.7973e-18)
(0.857472 0.80617 5.75549e-17)
(2.46753 -1.92257 2.10378e-19)
(1.40158 -1.42764 -4.03913e-19)
(1.7057 -0.271739 4.69821e-18)
(1.3371 0.605338 8.45295e-18)
(1.5316 -0.794272 -2.30166e-19)
(0.249344 -0.681557 4.10192e-18)
(0.160864 -0.0760128 1.1805e-18)
(5.38951 2.30189 9.29743e-20)
(1.13991 0.0473283 9.31481e-18)
(0.4415 0.0193663 9.42172e-18)
(6.55839 0.913026 3.51593e-18)
(1.78932 -0.0680895 8.673e-18)
(1.33783 -0.447347 -1.84625e-19)
(0.0170411 0.18184 6.01478e-18)
(2.24647 0.831044 3.54865e-19)
(-0.640268 -0.21819 -1.18024e-18)
(1.55454 -0.139953 1.11242e-17)
(-0.245692 0.0694507 6.30378e-20)
(1.87737 0.0412749 4.16274e-18)
(2.22929 -1.86474 -8.18912e-20)
(1.87724 0.5624 1.83617e-18)
(1.95441 0.931871 4.22691e-19)
(2.11849 1.10677 4.23914e-18)
(0.776718 -0.324592 8.39085e-18)
(1.20721 0.503226 1.89322e-18)
(5.47029 -1.94481 -5.82427e-19)
(1.7983 1.41695 5.12179e-18)
(7.10604 -2.34412 1.92764e-18)
(1.90837 0.124367 3.23935e-18)
(2.96412 0.623748 4.31663e-18)
(1.5172 -0.0663331 4.48284e-18)
(1.97325 1.09735 6.47846e-19)
(1.39958 -0.652208 5.07616e-18)
(1.2518 0.799127 1.06222e-17)
(0.083357 0.0485526 1.18104e-18)
(2.09724 1.74795 -7.7395e-19)
(0.360969 -0.118593 7.4745e-18)
(0.830894 -1.07074 -1.48733e-18)
(0.750804 -0.266801 9.39496e-18)
(0.609045 -0.0795264 1.00888e-17)
(0.608188 -0.0309123 1.28481e-17)
(0.68208 -0.387661 7.41742e-19)
(0.398125 -0.804297 -1.00728e-18)
(1.79405 -1.83336 -1.32148e-19)
(2.19046 2.05725 -7.1318e-19)
(0.587797 -0.468001 1.08205e-17)
(0.804794 0.0512697 1.12485e-17)
(6.40092 1.65018 2.94304e-18)
(2.01435 0.19725 3.88891e-18)
(2.09753 1.05938 4.82855e-18)
(1.79867 1.57178 4.11939e-18)
(1.1016 -1.38957 2.81345e-19)
(0.316966 -0.113737 6.35524e-19)
(1.74037 -0.412705 1.76901e-18)
(5.97706 -1.8195 -2.84455e-18)
(1.60423 -1.75142 -2.63282e-19)
(1.8152 -0.855852 -1.49143e-18)
(7.14147 -0.204923 5.10841e-18)
(0.695154 -0.426294 2.6761e-18)
(0.21903 0.100518 6.68971e-18)
(3.5224 -2.50875 9.03733e-19)
(3.8689 -2.64092 8.80237e-19)
(4.36309 3.69159 -3.83308e-19)
(3.18095 3.48884 -4.97438e-19)
(1.24598 0.846697 8.82715e-18)
(1.91013 -0.576197 3.77027e-19)
(2.33736 3.01387 -4.01034e-19)
(0.0921878 -0.112772 3.0818e-19)
(2.83009 -2.44729 6.14358e-19)
(0.416892 -0.202834 6.38843e-19)
(0.407368 0.758482 3.78039e-17)
(2.56534 0.192216 6.62537e-18)
(1.71351 -0.377149 4.42728e-18)
(1.53233 0.0333526 9.32561e-18)
(1.11767 -0.225081 4.84395e-18)
(4.72331 -2.63339 2.3635e-19)
(0.345979 0.0405105 7.70799e-18)
(0.610273 -1.05532 -4.73304e-19)
(1.75313 1.37039 4.00725e-18)
(1.62638 1.85318 4.55673e-18)
(1.26486 -1.6985 -7.21291e-19)
(-0.0563519 0.163776 8.49066e-18)
(1.66292 0.139391 3.67716e-18)
(0.449291 -0.365403 6.5016e-18)
(0.673449 -0.541491 -2.76315e-18)
(1.67965 0.154957 2.0281e-18)
(1.66205 0.720798 2.09858e-18)
(1.23496 -0.12523 9.10362e-18)
(2.54645 -2.32505 4.21062e-19)
(2.14555 0.442851 9.85773e-19)
(1.81629 -0.323374 4.17238e-18)
(0.672447 -0.464402 1.91644e-18)
(1.66143 0.822155 1.03993e-18)
(0.11302 -0.0860252 -3.27472e-20)
(0.776818 -0.109241 9.06285e-18)
(1.30238 -0.174282 1.03194e-17)
(1.72666 1.26603 1.26288e-18)
(0.170342 -0.0782476 9.06454e-18)
(5.20803 -2.63413 -1.00976e-18)
(0.135185 0.171373 2.07321e-17)
(0.491298 -1.01023 -4.93358e-20)
(5.95831 2.73556 3.73983e-18)
(0.961726 -1.3242 -1.75337e-19)
(-0.0214757 0.12843 1.30881e-18)
(7.10953 0.601519 5.92338e-18)
(-0.00794276 -0.154343 4.51922e-18)
(0.0915274 -0.291382 7.59179e-18)
(0.271943 -0.47439 -2.37766e-18)
(0.500944 -0.100254 8.59932e-18)
(2.03039 -2.25289 -2.81561e-20)
(1.72423 1.42568 1.66069e-19)
(0.60671 -0.168094 1.0561e-17)
(0.0212711 -0.0601493 2.19223e-18)
(1.55213 1.69846 4.94407e-18)
(3.75277 3.85323 -4.74023e-19)
(0.826292 0.140411 9.62812e-18)
(2.53426 3.39638 -4.18104e-19)
(1.6515 0.304366 4.00917e-19)
(5.04868 4.09059 4.22307e-19)
(0.0676261 0.143632 8.76747e-18)
(0.639274 -0.520403 2.59953e-19)
(1.79567 2.21045 1.4019e-18)
(1.10657 -1.61844 -1.33997e-19)
(-0.792276 -0.00858837 -1.02555e-18)
(1.89411 -0.60383 5.07103e-18)
(-0.292569 -0.261304 -2.28209e-18)
(1.85517 0.457066 9.13514e-18)
(0.0710167 0.0936248 4.58598e-18)
(1.98526 -0.095596 1.229e-18)
(1.81638 -2.13618 1.78855e-19)
(1.52754 1.49181 6.91856e-18)
(1.04481 0.583022 1.82942e-18)
(2.43494 -0.62948 5.46814e-18)
(0.263881 -0.0489995 5.8199e-18)
(0.927266 0.679391 4.61106e-17)
(1.29237 1.17297 1.10231e-17)
(0.0814696 -0.689869 2.38397e-18)
(0.456081 -0.57316 -2.19011e-18)
(0.117907 -0.0328062 -7.2443e-21)
(5.47074 3.47025 4.21296e-18)
(0.0946515 -0.72223 2.07435e-18)
(1.78681 2.55823 6.87149e-19)
(7.17104 -3.29698 1.20092e-17)
(1.42696 -2.0504 -4.667e-19)
(1.76872 2.00375 4.44034e-18)
(0.318621 -0.0518175 9.45979e-18)
(1.10328 0.0707264 7.54318e-18)
(1.45722 0.39412 7.64634e-18)
(0.272504 -0.164099 1.69878e-18)
(1.49071 0.294567 2.88042e-18)
(6.83431 1.63246 7.80139e-18)
(1.44749 0.267288 4.89737e-18)
(-0.213166 0.0469599 5.56919e-18)
(1.43664 1.0197 1.65219e-18)
(0.536823 -0.0857672 7.24767e-18)
(3.14961 -3.12 7.77817e-19)
(2.07567 0.136867 4.8178e-18)
(0.863908 0.0725104 8.12305e-18)
(-0.0256249 0.0555877 1.11865e-18)
(1.38763 0.634171 1.95707e-18)
(0.0978687 0.118946 1.09111e-17)
(0.717329 -1.29108 -1.24594e-18)
(3.06626 -0.276737 4.19193e-18)
(2.97572 -0.822668 1.12302e-17)
(1.78717 -0.723762 1.37672e-17)
(0.244588 -0.841743 1.10205e-18)
(7.40611 -0.773268 7.40721e-18)
(1.46826 0.323811 -3.76746e-19)
(4.36543 -3.39225 5.46506e-19)
(0.385754 0.501856 4.07473e-17)
(0.485479 -0.172615 9.90122e-18)
(0.619787 -0.488374 7.01518e-18)
(3.95096 -3.24956 9.60354e-19)
(1.39405 1.10597 1.75332e-18)
(1.40971 0.470985 8.43859e-18)
(1.26153 -1.9476 -1.04635e-18)
(2.84985 -2.92229 7.35411e-19)
(1.05359 0.556457 3.75751e-17)
(1.43378 0.338104 -5.20272e-20)
(1.49315 -0.6656 5.08384e-18)
(0.35729 -0.165333 1.8599e-18)
(0.659684 -0.0508218 9.01617e-18)
(0.910084 0.666673 9.19933e-18)
(0.243466 -0.615741 7.12598e-18)
(0.824759 -1.55882 -1.34595e-18)
(6.56192 -2.63459 -3.77629e-18)
(0.529173 -0.85316 3.91387e-18)
(6.35945 2.59539 9.51573e-18)
(1.40475 1.63317 1.30514e-18)
(1.74604 0.0749208 7.34265e-18)
(0.286884 -0.943302 7.2126e-20)
(2.256 -2.78058 3.21396e-19)
(-0.238705 0.206301 2.19929e-17)
(-0.745925 -0.0704947 -6.26259e-19)
(1.89753 -0.716759 5.10855e-18)
(0.00541337 -0.0110525 7.57476e-18)
(3.85768 4.53107 1.10313e-17)
(0.604956 -0.417706 2.12971e-18)
(1.45638 1.49341 6.92401e-18)
(1.10063 0.100149 9.36875e-18)
(0.118212 0.0781443 9.44665e-18)
(1.53877 0.837983 1.29422e-17)
(5.58951 -3.53576 -1.58909e-18)
(0.480078 -0.307577 2.22796e-18)
(1.75089 3.70516 3.33051e-18)
(2.02147 -2.61258 2.297e-19)
(1.3919 -0.0624091 9.85917e-18)
(2.63439 4.64441 2.25364e-18)
(1.3916 1.78718 3.21811e-18)
(0.0875096 -0.0525318 1.0691e-17)
(7.35734 0.100175 1.10291e-17)
(0.94344 -1.87935 -3.34008e-19)
(1.96241 -0.705402 6.61481e-18)
(1.31026 0.419505 3.67461e-18)
(1.75197 1.146 1.12586e-17)
(1.18032 0.396761 4.48736e-18)
(0.600953 -1.23785 -9.79153e-19)
(3.26339 4.93878 1.27852e-17)
(1.57605 -2.47208 6.81519e-19)
(0.0462556 0.255088 -8.06386e-19)
(1.95079 -0.644084 4.46347e-18)
(-0.631962 -0.208157 -8.25997e-19)
(1.33999 0.434765 9.60429e-19)
(0.908686 0.52706 8.08088e-18)
(0.167936 0.0900301 -1.0742e-18)
(0.66465 -0.259568 5.24799e-18)
(1.3092 0.426702 -4.63155e-19)
(1.49694 0.11802 8.64128e-18)
(4.53906 3.27558 1.8912e-17)
(1.20382 -0.678422 5.64833e-18)
(3.26409 -0.297703 4.03216e-18)
(1.23392 2.63067 7.66557e-18)
(-0.0306657 -0.0382255 3.37264e-18)
(0.696255 -1.49246 -4.10305e-19)
(6.83524 1.06699 1.37317e-17)
(1.19142 0.763236 2.01416e-18)
(0.375256 -0.0968519 7.41059e-18)
(1.87703 -0.606364 1.03785e-17)
(0.579742 -0.486193 4.42329e-19)
(0.385173 -1.22601 -4.14287e-19)
(2.95042 5.13519 9.27289e-18)
(6.2436 -3.56307 -3.89113e-18)
(1.11553 0.874801 1.91447e-18)
(0.0499058 -0.738485 1.82033e-18)
(-0.123091 0.430675 1.19747e-17)
(1.11225 1.28925 9.42137e-19)
(0.579558 -0.446775 1.15982e-18)
(0.967745 0.901437 9.06312e-18)
(-0.0776335 -0.0586368 6.43095e-18)
(0.486839 -0.294511 9.82242e-18)
(1.39444 -2.33019 -9.93186e-19)
(1.86216 -0.777224 5.28249e-18)
(0.408535 -0.250708 1.22053e-17)
(3.11011 0.125849 3.50066e-18)
(1.56774 -0.578154 1.05036e-17)
(0.045151 -0.752229 1.19658e-18)
(0.795112 -1.79291 -1.46619e-18)
(0.469614 -0.376683 1.20884e-17)
(0.0481736 -0.0920609 6.05332e-19)
(1.27068 0.459726 1.08611e-18)
(0.517972 -0.255109 5.31987e-18)
(1.96502 -0.876159 6.05685e-18)
(3.73378 4.17075 2.07735e-17)
(0.138265 -0.822596 4.16481e-19)
(0.858644 0.5771 1.20502e-18)
(1.47897 1.30378 1.07492e-17)
(1.00455 1.43845 1.77956e-18)
(2.07102 -0.748556 7.59579e-18)
(1.04187 2.91092 1.03049e-17)
(1.59656 4.233 -4.29433e-19)
(1.28495 -0.542554 1.07892e-17)
(1.0421 -2.20515 -1.54738e-18)
(0.144825 0.196002 1.98286e-17)
(5.842 -4.46518 1.20394e-17)
(3.49045 -3.93943 1.16752e-18)
(3.14378 -3.65724 7.52412e-19)
(2.45679 -3.41796 5.81898e-19)
(4.86347 1.93218 2.86265e-17)
(0.201828 0.141386 9.74014e-18)
(7.48968 -1.70864 1.22846e-17)
(0.0806059 -0.0835279 1.2926e-17)
(0.282362 -0.937979 -2.41376e-19)
(1.96404 -0.879957 1.026e-17)
(0.378559 -0.447477 -4.03278e-19)
(1.09684 0.680331 4.09956e-18)
(1.42165 0.649578 1.43791e-17)
(4.50849 -4.19665 7.88883e-19)
(0.422624 -0.245174 1.19063e-18)
(1.21611 0.558695 6.26047e-19)
(5.07068 -4.49304 -3.35445e-19)
(1.22486 0.563588 1.87578e-18)
(0.101929 -0.729948 3.05662e-18)
(2.20065 -3.19343 3.50175e-19)
(1.00351 0.277068 7.40259e-18)
(0.487315 -0.438317 9.71489e-19)
(0.946373 1.96052 4.81756e-18)
(0.181407 -0.0883539 -1.19358e-18)
(0.975977 0.803912 6.09053e-18)
(1.6641 -0.801314 1.32662e-17)
(0.462865 -1.4682 -4.58955e-19)