/*--------------------------------*- C++ -*----------------------------------*\
  =========                 |
  \\      /  F ield         | OpenFOAM: The Open Source CFD Toolbox
   \\    /   O peration     | Website:  https://openfoam.org
    \\  /    A nd           | Version:  8
     \\/     M anipulation  |
\*---------------------------------------------------------------------------*/
FoamFile
{
    version     2.0;
    format      ascii;
    class       surfaceScalarField;
    location    "0.8";
    object      alphaPhi0.water;
}
// * * * * * * * * * * * * * * * * * * * * * * * * * * * * * * * * * * * * * //

dimensions      [0 3 -1 0 0 0 0];

internalField   nonuniform List<scalar> 
2805
(
-1.36877e-05
0.000130981
-0.000125169
4.67636e-07
-1.42005e-05
-1.51318e-07
-1.77002e-06
1.80038e-06
1.48631e-06
-1.76113e-06
4.1453e-07
2.32913e-08
0
1.55886e-06
4.09297e-06
-4.54642e-06
-3.68885e-07
5.09722e-06
5.26679e-06
-5.0519e-06
-3.83731e-06
1.95654e-06
-1.08133e-07
6.07138e-06
3.28344e-07
-4.40222e-07
-1.23864e-06
1.00052e-06
1.22382e-08
1.08595e-08
3.14614e-07
7.25412e-07
-2.83173e-06
2.40455e-06
-2.37738e-06
2.52207e-06
-1.1791e-06
-9.40632e-09
3.80775e-07
-3.72934e-07
0.000112435
8.67972e-05
-2.19895e-08
3.56493e-07
0
-1.11963e-07
0.000151468
-9.33577e-08
3.38542e-08
4.47502e-08
3.48799e-08
-5.53617e-06
4.42303e-06
1.51961e-07
-2.07032e-07
-9.25922e-08
-9.48203e-10
-7.99979e-06
8.13747e-06
8.69187e-08
3.11577e-06
-7.17717e-06
1.22892e-05
-4.93504e-06
-5.65491e-06
-5.36032e-07
5.91874e-07
-8.42055e-08
-1.63158e-06
8.48332e-07
7.34546e-07
9.43186e-08
-5.94789e-08
-1.7017e-06
-1.99619e-07
0.000218814
-1.00251e-06
-0.000161881
-1.03487e-07
1.16426e-06
2.28498e-06
1.3902e-05
-7.70096e-06
-3.42886e-06
-9.27579e-06
7.82675e-06
-9.01177e-06
6.236e-06
3.24675e-07
-5.20572e-06
-9.15082e-09
-1.41855e-06
-7.62245e-06
-8.27332e-07
7.80014e-06
5.99133e-06
5.03432e-06
2.59387e-06
4.69802e-06
-2.7952e-06
-2.12089e-06
-5.14046e-08
7.80833e-09
5.1073e-07
-1.00436e-05
1.29124e-07
2.88263e-06
-1.01377e-06
2.99877e-06
-2.03435e-06
-0.000296254
-4.78916e-05
0.000344145
0.000196256
0.000242714
-0.000317508
0.000770289
-0.00140651
0.000874815
1.67111e-07
1.05298e-07
1.35964e-08
0.00152087
-0.000750985
5.19745e-08
-2.55244e-08
-3.69247e-08
-1.68192e-06
0.000150932
3.40963e-06
5.91011e-06
-2.7515e-06
-7.39148e-06
8.35633e-06
4.92526e-06
7.49727e-06
-2.09393e-06
5.02679e-06
-8.80653e-06
6.99513e-06
-1.20755e-06
-6.07826e-07
-7.99072e-07
1.2018e-06
0.00017967
0.00134046
7.49416e-07
1.89834e-06
-6.7329e-06
1.04279e-06
8.44286e-06
-7.17352e-06
0
4.93225e-07
-2.95496e-06
-0.000718966
-7.27953e-06
5.15983e-07
7.14538e-06
-3.64024e-06
9.17863e-06
-5.32897e-07
-8.65315e-06
5.62942e-06
-1.58709e-06
-6.96186e-06
-3.02377e-07
-4.79997e-07
3.18516e-07
3.5948e-06
-5.17326e-06
-8.31763e-06
6.81271e-06
-1.15401e-06
-9.6176e-07
2.31407e-06
4.39467e-08
-5.60058e-08
1.0931e-08
9.36433e-06
-3.3954e-06
-4.65323e-07
-1.84401e-06
2.22153e-06
-4.27947e-08
-7.086e-08
0.000117257
-1.12075e-06
-2.8133e-06
7.95057e-07
-1.51556e-06
-2.06613e-07
-9.99633e-05
-1.7714e-07
1.04395e-06
-1.78814e-06
-2.71567e-06
2.2127e-06
1.03462e-05
5.20796e-08
3.40437e-06
-2.74051e-06
-2.51494e-07
-2.23762e-07
4.50725e-08
0.000585891
-0.000838576
1.35174e-06
1.99553e-06
3.06907e-06
-6.1815e-07
-2.48998e-06
7.8059e-07
-2.79797e-06
1.92113e-06
-8.45446e-07
3.20747e-06
-2.71837e-06
-2.68304e-07
-1.14282e-06
-1.70813e-06
7.92295e-06
-1.77108e-06
7.47242e-08
3.32066e-06
-4.54334e-06
1.56066e-06
6.22796e-07
-2.1552e-06
-1.07753e-05
1.30538e-05
7.57067e-08
-1.96018e-08
5.07255e-06
6.25374e-07
-1.38871e-06
-2.26252e-06
4.50355e-06
8.52185e-06
-3.91816e-06
-6.68568e-06
1.34971e-06
-5.93005e-07
-8.14582e-07
2.21169e-06
-4.4213e-06
-2.10725e-06
2.03481e-06
9.22633e-07
3.54616e-06
-1.75124e-06
2.02719e-05
-6.20285e-07
-1.89468e-05
-8.60815e-06
-6.12531e-05
0.000185192
-0.000297119
0.000307655
-1.05357e-05
0.000527253
-6.28915e-07
-1.93402e-06
4.2214e-06
-1.16851e-07
8.36365e-06
-6.86424e-06
-3.32967e-06
8.8467e-07
1.3356e-06
-5.71025e-06
8.10855e-06
-5.06928e-05
0.000212852
-0.00016216
2.01398e-06
-3.28064e-06
1.08989e-06
-2.59627e-07
-5.78458e-06
1.59806e-06
7.90177e-07
-1.03071e-07
1.51067e-05
-1.1155e-05
1.35842e-05
-6.33629e-06
1.84284e-07
-3.90078e-08
9.4824e-06
2.57219e-06
-3.99783e-06
0
6.17236e-07
0.000122914
-7.46932e-05
-3.19673e-07
1.40518e-06
-0.000155075
0.000104382
-6.02322e-08
-3.57977e-06
3.19775e-06
5.39636e-07
1.76998e-05
6.54211e-07
-6.73721e-06
4.84376e-06
-0.000297119
-2.82356e-06
-3.43374e-07
-5.52273e-07
1.8241e-06
1.25899e-06
7.38369e-06
1.53181e-06
0.000284091
2.35638e-05
-1.50787e-05
-3.38258e-07
2.3568e-06
2.98401e-08
-3.20247e-05
3.41369e-05
-1.05501e-06
4.08517e-07
5.51941e-08
1.10434e-06
-0.000288236
-8.88321e-06
3.03098e-06
-3.64055e-05
2.69859e-05
8.65729e-06
2.19368e-05
-1.40713e-05
0.000112878
0.000171213
1.31797e-06
-1.00307e-05
-2.21442e-06
8.82297e-08
-1.12296e-06
-2.95428e-07
1.98648e-06
-3.11669e-06
-1.08754e-06
9.92667e-06
7.12489e-07
-2.81816e-08
3.50463e-08
-8.40426e-09
-3.35371e-07
-1.3238e-06
8.54277e-06
1.58523e-05
-1.89765e-05
-2.90098e-07
1.34343e-06
1.96269e-06
-5.89922e-08
-5.13651e-06
3.5689e-06
9.44079e-07
-9.20326e-06
-6.38109e-07
1.01706e-05
1.26671e-05
9.75897e-06
0.000171889
-0.000219781
1.62569e-05
-2.20983e-05
-2.36458e-06
-2.76074e-07
-1.59737e-06
8.78296e-06
-9.18613e-06
-1.01999e-06
-1.65642e-06
2.01321e-06
-1.09938e-07
1.756e-07
5.28457e-06
1.26634e-07
-5.05251e-07
1.88075e-06
2.1201e-05
-7.5774e-06
-0.000288236
-5.34553e-06
1.8671e-05
-1.14916e-05
1.62365e-08
-4.59818e-08
6.26614e-08
2.83718e-08
-3.74298e-08
-1.01353e-08
-2.67126e-05
2.07803e-05
-1.2177e-05
6.6671e-06
-1.31759e-06
1.07362e-07
-5.72174e-07
2.2049e-06
-3.01951e-06
7.35129e-07
-8.81393e-07
-4.39744e-06
-0.000287614
-6.22369e-07
1.18637e-05
4.09117e-07
-4.27285e-08
-1.29196e-07
1.04335e-05
1.14417e-05
6.77267e-07
1.66865e-06
8.8602e-06
8.51538e-08
1.63852e-07
6.14642e-06
-3.70499e-06
-2.33743e-07
9.48863e-07
1.80562e-06
7.16198e-06
3.32996e-07
5.00493e-08
4.88637e-06
1.20257e-05
7.59408e-06
-2.9958e-07
4.11238e-07
1.92984e-06
-2.78761e-06
1.68278e-06
1.18714e-05
-1.78572e-06
-6.39564e-08
2.3561e-08
5.72321e-07
-6.03283e-07
5.32372e-06
-3.21675e-06
-2.36893e-06
-3.45122e-08
2.19477e-05
-9.60776e-06
-2.73216e-05
-8.66414e-08
-1.03994e-07
-1.15655e-07
6.31349e-06
9.02419e-06
-1.72955e-06
-0.000287614
1.87882e-05
-4.95484e-06
1.08091e-07
-2.58204e-07
7.41618e-08
-9.34585e-08
-1.98583e-06
-9.47272e-07
4.29687e-05
-3.5927e-05
-8.37815e-07
5.43761e-06
2.71391e-08
2.56679e-06
-1.92839e-06
-8.93929e-07
-3.41873e-05
-0.000191651
-9.59629e-05
3.06358e-06
8.85803e-06
0
-8.71464e-08
-1.06121e-06
6.9417e-09
6.3224e-07
-8.23159e-07
6.48692e-07
3.19102e-07
-8.66433e-07
1.78599e-06
1.04696e-06
5.37258e-06
1.24374e-05
1.48729e-06
5.76106e-06
5.32323e-06
2.75837e-06
-1.73641e-06
-2.06725e-08
3.84886e-06
-1.07209e-05
3.76396e-07
7.26813e-06
2.42856e-06
-3.62561e-06
1.164e-08
-5.82357e-05
-7.40959e-07
3.70748e-08
-3.81223e-06
0
-9.90761e-08
3.09128e-06
-1.23536e-07
2.10835e-06
3.46312e-06
-2.12554e-08
-3.66073e-08
8.57994e-07
1.37366e-05
8.62817e-06
2.0769e-06
-4.36376e-08
-9.01234e-05
-0.000191651
-1.86726e-06
4.6213e-06
-1.45587e-06
6.11328e-05
0.000125303
8.99672e-08
-4.81828e-07
-0.000212852
2.12016e-05
5.32117e-07
4.91431e-06
1.6753e-07
2.70263e-06
-1.21067e-06
-7.22306e-06
-1.71844e-06
2.25179e-05
-8.31591e-06
-1.29982e-06
2.77465e-06
-5.05083e-05
-2.14243e-05
-9.37475e-06
4.58634e-07
-2.39463e-08
-2.78021e-06
8.86862e-07
-4.09804e-07
-1.85911e-07
3.01377e-07
1.76677e-06
-1.68672e-06
6.41235e-06
2.8946e-06
9.33889e-07
6.56812e-09
-2.03067e-06
3.78671e-06
-7.41931e-07
-1.51018e-07
3.71008e-07
-1.42314e-08
1.78758e-06
-2.64184e-07
-3.68924e-07
-8.07803e-07
3.80483e-05
-1.13547e-05
2.258e-06
2.39567e-06
2.09916e-10
-5.00131e-10
1.68329e-10
-6.65214e-07
-3.27538e-07
8.08128e-06
2.58508e-06
9.2514e-07
2.01168e-05
-3.30405e-06
-2.08643e-06
-1.4468e-06
1.61258e-06
-2.07819e-05
9.36678e-07
-2.98456e-06
-3.18712e-06
1.65339e-08
-3.18777e-08
1.43315e-08
6.3271e-07
4.92116e-07
7.28566e-07
-4.44456e-07
4.81628e-07
-1.26997e-06
9.04785e-07
7.65482e-06
-1.96265e-07
3.86504e-08
4.91365e-07
9.19949e-06
-8.80647e-06
1.39013e-05
8.55675e-06
1.20425e-05
2.61733e-06
-1.46336e-06
4.36594e-06
-2.05035e-06
3.64698e-07
-1.12785e-08
-4.61893e-06
2.08237e-10
-1.31822e-09
-1.62353e-07
9.46575e-08
7.48436e-07
-4.0441e-08
3.54167e-06
5.8777e-06
5.37712e-06
-4.63189e-07
1.51288e-05
1.66952e-05
3.28543e-05
-1.9545e-05
2.11777e-05
5.88369e-06
4.31842e-06
-1.52546e-06
-1.4308e-06
3.03213e-06
-8.61002e-08
-7.85454e-05
0.000161015
-8.24693e-05
3.36954e-07
3.2574e-06
-3.80181e-07
1.72539e-07
0.000120365
-0.000120697
1.986e-05
-7.64582e-06
-1.15754e-06
9.67824e-07
2.63305e-06
5.4874e-06
1.5573e-06
3.23883e-06
2.56734e-06
-4.20742e-10
-5.71448e-06
3.70115e-06
2.6503e-06
1.77068e-06
1.35621e-06
1.16603e-06
-1.34726e-06
1.15543e-05
4.48715e-06
-8.69167e-08
1.87866e-05
2.84854e-06
1.39909e-06
-8.61636e-06
6.36092e-06
-2.36832e-07
9.90649e-07
1.28819e-10
-7.90143e-09
1.84334e-06
3.6538e-06
4.70525e-06
-9.03965e-07
3.41482e-07
2.19216e-05
-5.00764e-06
-6.77975e-08
1.06369e-06
-1.4375e-06
6.67953e-06
1.74199e-06
1.17424e-06
1.29254e-06
-2.76824e-08
3.54056e-06
7.2421e-06
2.24261e-07
6.15356e-06
-5.75833e-06
2.10702e-05
-1.09113e-05
-4.55275e-12
-1.50485e-06
-2.30868e-06
4.34849e-06
-0.000143569
-1.15055e-05
2.75594e-06
-2.05295e-06
-1.6368e-07
1.28389e-09
-2.43865e-07
0.000112878
3.11953e-06
3.09658e-06
2.59061e-09
-2.45256e-07
1.98156e-07
3.57226e-06
1.06877e-05
3.10872e-06
2.4813e-06
4.30193e-08
1.25227e-06
6.63354e-07
-2.58174e-07
7.52867e-06
4.96728e-06
-2.25568e-06
6.77387e-06
-2.61168e-08
1.8222e-08
-4.26298e-08
1.82799e-06
-8.64583e-07
4.21173e-06
-3.66403e-06
0
4.90064e-06
3.15105e-06
-1.10931e-06
-2.44181e-06
-4.25853e-08
-5.06598e-08
1.13213e-08
-1.86313e-06
6.61617e-06
-3.96473e-06
-6.3298e-07
-2.19888e-06
-2.65231e-06
7.4158e-07
6.84464e-09
-7.41749e-09
1.7318e-06
1.46254e-06
3.63659e-06
-1.48982e-08
2.54809e-06
8.22029e-06
2.33876e-07
-1.13406e-05
4.15632e-06
1.40838e-06
2.34168e-06
-2.80653e-05
0.000523928
-0.000277697
1.85249e-06
-1.26947e-09
-1.37217e-06
3.95666e-06
-2.63534e-06
1.22691e-05
-6.00461e-06
-6.06514e-06
5.21612e-06
-1.50408e-06
3.89545e-06
-1.19013e-06
-1.29586e-07
1.1262e-06
6.00527e-06
7.73564e-07
2.11023e-06
-6.15252e-08
1.89495e-05
-4.61568e-06
3.27813e-06
1.34682e-05
9.506e-06
7.2365e-07
-5.44089e-06
-1.9684e-06
1.72702e-06
-3.57888e-07
9.51022e-06
4.33391e-08
4.47375e-06
1.60799e-08
-2.83793e-08
1.756e-09
-9.77081e-10
-6.43132e-06
6.18266e-06
2.91253e-07
-6.538e-08
6.75861e-09
6.30669e-06
5.47986e-06
-4.52166e-07
2.79922e-06
2.27311e-06
6.8167e-06
-1.39593e-06
1.96119e-05
-8.62583e-06
9.98393e-08
-6.66553e-08
7.56268e-06
-1.07996e-05
4.26835e-08
-5.61529e-08
2.90978e-07
-7.11105e-08
-1.36591e-06
6.28883e-07
3.68159e-07
3.43891e-07
3.2074e-06
4.45488e-06
-1.83722e-06
5.47963e-06
-3.95311e-06
7.92511e-06
2.64279e-06
4.39976e-06
-2.46773e-08
2.11819e-07
6.29306e-06
3.71932e-07
6.06046e-06
-5.70231e-06
3.76321e-07
6.79594e-07
-2.71735e-06
0.000105236
9.20671e-07
3.35486e-07
4.01107e-07
8.66232e-06
-5.46047e-06
2.73884e-08
-1.17229e-07
3.38939e-06
2.45056e-06
7.65659e-07
8.17857e-06
-5.50963e-06
0
4.72723e-06
-1.81116e-07
-3.47334e-07
1.58445e-10
-2.52763e-09
-6.01251e-08
5.09175e-07
6.57171e-07
-3.18608e-06
2.25035e-06
1.82663e-05
-4.49832e-06
8.73343e-08
-1.98593e-07
8.47983e-06
-5.99831e-06
1.19234e-06
-2.45866e-07
-3.25714e-08
2.78419e-06
1.1047e-05
4.62274e-07
-3.12763e-08
1.1855e-06
-3.91695e-10
3.05453e-06
2.89746e-06
2.44296e-06
4.80691e-06
5.06386e-06
-2.30637e-06
2.19074e-08
-3.85993e-08
3.25887e-06
1.39349e-05
5.98038e-06
9.92354e-06
-1.12045e-05
-2.31318e-05
2.11974e-05
9.93888e-06
4.83885e-06
-1.82246e-06
2.64173e-07
2.11371e-08
2.58976e-06
-8.82109e-08
-6.47066e-10
-5.88492e-06
6.21076e-06
-8.57783e-08
1.86739e-08
-1.63601e-06
6.1266e-06
4.98129e-06
-4.94253e-08
-3.67035e-09
0
-2.73494e-08
5.84017e-09
-1.20494e-08
-4.91147e-06
5.30453e-07
-5.84936e-05
0.000481171
-5.50732e-09
2.87199e-06
-7.02919e-06
5.93187e-06
3.66447e-07
-7.80869e-06
-1.82319e-07
-4.81403e-06
1.44911e-06
-2.41376e-06
7.20395e-06
-2.42611e-06
-2.09553e-06
2.02343e-06
1.40802e-06
8.74673e-07
3.76914e-07
1.71973e-06
1.2395e-06
7.84685e-06
-7.56066e-09
-4.28137e-07
-3.31211e-06
0.00101433
-0.000185252
1.1026e-05
-3.23506e-05
-7.99353e-07
3.25657e-08
3.509e-06
-4.09512e-08
1.15462e-05
-1.06879e-07
-3.91693e-06
-8.57986e-09
4.53725e-06
-1.19024e-07
-1.20477e-07
7.19641e-09
2.23029e-06
7.32281e-06
1.0114e-06
1.35138e-06
1.15731e-05
-1.81755e-06
4.57164e-06
-9.55232e-08
-2.63675e-05
7.79911e-06
-5.88946e-08
9.72179e-06
-2.56634e-06
1.1966e-05
-1.32416e-05
5.00989e-11
-1.24983e-09
-3.76724e-07
3.09475e-06
6.20055e-06
9.42069e-07
0.000189147
0.0011507
6.82502e-05
-1.95781e-06
2.23407e-07
2.72211e-05
-1.81537e-05
3.1551e-08
-8.60497e-08
-2.61259e-06
4.2329e-06
-3.65816e-06
7.14414e-06
-7.1582e-06
-0.000174514
0.000659099
0.000467001
4.073e-06
3.76786e-06
-3.52416e-06
1.5137e-06
3.80478e-06
5.31038e-10
1.46705e-08
7.44788e-05
2.52644e-05
-7.94677e-06
3.02237e-06
1.94807e-06
-1.74079e-05
3.0735e-06
-6.96604e-08
-1.01373e-08
1.87155e-06
1.6901e-06
2.38639e-07
-3.45736e-08
-8.5873e-08
-6.1855e-06
2.20332e-05
-6.04121e-07
4.22956e-07
1.52697e-05
-4.4239e-06
-1.2012e-06
-8.10499e-07
-1.44289e-08
2.41554e-06
1.92707e-06
1.44585e-05
-7.6699e-09
-1.06106e-07
-4.66631e-05
0.000891537
-3.14082e-06
3.33803e-06
1.02003e-05
-7.19448e-06
-1.26031e-08
-1.15115e-07
1.48797e-07
-2.79875e-06
-2.94621e-06
8.05615e-06
-8.97974e-08
-1.73448e-05
1.79874e-05
1.27076e-06
3.75378e-06
-2.71656e-06
6.87165e-07
-1.21086e-06
2.86962e-06
1.10473e-07
1.01382e-07
-1.17542e-06
9.26345e-06
1.8025e-06
7.95471e-06
7.55382e-08
0
-4.58116e-09
3.4198e-07
2.87328e-06
8.10853e-06
8.37697e-06
3.58623e-06
-9.29928e-09
-9.39264e-09
1.08765e-05
-1.8623e-07
5.09231e-09
5.73835e-08
-1.5139e-05
1.44846e-05
-1.71686e-07
-2.99638e-06
2.76826e-05
2.26364e-06
-2.52884e-08
2.08082e-06
9.84415e-06
2.38365e-05
-5.52916e-06
8.61569e-09
4.80494e-07
3.17069e-08
-2.3032e-08
-6.4231e-09
2.83384e-07
1.43111e-05
-1.40995e-05
6.28886e-05
0.000115235
2.8785e-07
1.82061e-07
-2.95548e-06
1.68901e-08
-9.59616e-06
1.9483e-06
-6.47703e-07
2.96056e-06
-1.17485e-06
8.41191e-06
-7.54555e-09
-1.08432e-08
-7.73654e-09
3.08948e-08
-4.1288e-08
-3.49778e-06
0.000300978
-4.47234e-06
4.71679e-10
3.49149e-06
-2.10167e-06
2.83659e-06
0.000101766
5.39287e-06
-3.79698e-06
-8.79757e-07
-2.50816e-06
1.109e-07
-8.04826e-07
-1.17483e-06
2.79254e-06
5.2181e-06
-1.25313e-06
6.31823e-06
3.75834e-06
3.85466e-06
-1.93246e-07
0.000266842
-0.000170443
-7.07337e-05
1.23396e-05
-3.8852e-07
0.000257223
-3.01576e-06
3.36278e-07
2.92906e-07
6.16664e-08
-1.37492e-08
7.17216e-10
-2.14011e-05
1.31263e-05
-3.36348e-06
2.84109e-08
-3.50379e-08
-1.78807e-09
2.53525e-07
-1.3732e-06
3.72047e-08
-1.9091e-08
0
-2.26086e-07
-1.30804e-07
9.28875e-08
-6.8095e-08
1.87866e-05
1.39248e-05
7.12881e-08
4.68788e-06
3.85499e-06
5.89797e-07
4.79181e-06
-3.45608e-06
5.64108e-06
5.72951e-08
0.000144973
8.69114e-06
0.00011177
0.000155072
5.78812e-09
-5.73847e-08
2.7106e-06
2.19255e-06
0
2.10614e-07
-6.90038e-06
8.63082e-06
5.46869e-05
-9.14391e-09
-8.60552e-07
6.34825e-06
-5.62135e-09
-9.98463e-06
1.24961e-05
6.19228e-07
-3.33751e-06
0.00019779
9.86244e-06
8.23247e-05
-5.54458e-08
4.50027e-08
1.07186e-05
-7.7842e-06
4.35523e-08
4.65068e-06
-1.45124e-05
2.44402e-05
0
-1.11817e-07
1.32637e-07
2.44734e-07
2.54631e-06
1.06398e-06
1.39773e-06
1.06985e-06
1.56438e-07
4.24675e-06
6.50748e-08
1.43487e-09
-3.93188e-09
-0.000230667
2.22289e-05
0.000208439
-1.51132e-07
-6.43179e-06
3.66234e-07
-3.86786e-07
4.92179e-11
-6.41624e-06
1.7446e-07
5.98954e-07
7.92081e-06
-1.48367e-06
7.05082e-09
-2.47552e-09
2.90549e-06
2.88042e-05
-2.99956e-05
-3.64471e-06
1.20594e-05
-6.81174e-06
6.31172e-06
4.56662e-06
-7.14087e-05
-7.21605e-05
3.29526e-06
6.80954e-07
-7.23e-07
1.9312e-08
1.39699e-05
-1.57168e-05
3.42567e-08
-4.72657e-08
6.666e-06
0
-3.50086e-06
3.52578e-07
-3.69179e-08
-2.46389e-09
4.95057e-10
0.000110656
9.13931e-05
3.49693e-08
5.78041e-08
-3.63303e-06
6.52882e-06
6.65259e-08
-2.95321e-05
-4.76449e-05
1.0241e-06
7.51894e-07
-4.9402e-08
4.29181e-07
-1.42029e-07
-2.02008e-07
7.23876e-09
2.25176e-05
2.13724e-07
1.69919e-05
2.66866e-08
-3.32847e-08
-1.12385e-07
3.62598e-06
-8.21036e-08
3.86917e-08
4.46809e-07
-4.97448e-07
-4.79058e-07
-1.78748e-07
1.07725e-07
1.15292e-05
-1.06444e-05
-1.04811e-06
4.0074e-06
-1.13152e-06
1.35777e-06
1.22579e-07
0
-1.70687e-10
-1.10767e-06
1.14528e-09
5.52389e-08
0.0001449
0.000582973
-0.000727873
1.60646e-07
-9.56748e-07
7.32794e-07
-1.44666e-07
3.13869e-07
-4.91124e-09
-3.55899e-06
2.52975e-06
3.04185e-08
-3.98061e-08
1.72449e-05
-2.60663e-05
2.56736e-06
7.86337e-11
1.63335e-08
-6.17618e-08
2.85187e-07
-7.1744e-08
1.12773e-05
-6.16732e-06
-3.02039e-05
0.000230668
-0.000123484
-6.79015e-08
8.89743e-08
-1.16842e-06
-3.31132e-06
-4.09774e-07
3.54352e-06
0.000467803
-2.41881e-06
1.44095e-07
-3.17247e-06
-1.5418e-05
1.02746e-06
-9.91849e-07
7.11061e-06
-2.13623e-05
1.41618e-05
0.000570563
-2.211e-07
3.85266e-07
3.16618e-06
1.43617e-10
2.12345e-06
-1.91342e-07
2.89311e-10
-4.67434e-06
-5.90151e-06
1.66305e-06
3.40463e-08
-2.97119e-08
-4.69366e-08
1.38776e-07
3.92745e-08
-1.07906e-08
8.33623e-06
-1.54927e-06
2.15175e-09
-7.58165e-09
-1.27606e-06
1.06583e-06
6.39342e-08
-3.59785e-07
0.000303535
-0.000303535
3.19944e-07
0.00010573
6.13524e-06
-5.11277e-07
5.86265e-07
7.53898e-09
-4.17883e-10
9.26675e-05
-1.37642e-06
2.23135e-07
5.08647e-08
7.40955e-06
-2.22617e-06
5.65491e-06
4.39752e-07
5.99956e-06
1.9381e-08
-1.56408e-10
3.81688e-07
2.5998e-05
-3.02318e-09
8.68272e-07
4.65186e-09
8.94096e-09
-4.99517e-07
-8.16256e-08
1.48159e-07
6.13935e-06
-1.92263e-06
1.32624e-07
-1.44677e-07
1.2521e-06
-5.93747e-06
9.89814e-09
2.46452e-06
-1.71878e-06
4.22997e-06
-4.24173e-06
2.898e-09
1.06775e-08
3.70508e-06
1.98331e-09
-2.99426e-07
-1.77968e-06
2.24602e-08
7.56064e-08
-1.24101e-05
4.62581e-05
-1.12162e-05
-1.68267e-07
1.50538e-07
-2.54667e-07
-9.71624e-10
-2.59381e-06
-0.000269121
0.000169122
4.60753e-07
-1.00255e-05
1.76428e-05
5.5302e-09
1.7867e-06
-2.57109e-07
3.5715e-11
7.00435e-09
1.41187e-07
-1.77043e-09
5.33986e-09
-3.10233e-07
1.04232e-07
6.56515e-09
-1.71809e-08
1.71356e-08
7.74e-08
-1.18252e-07
9.23116e-05
-9.42676e-05
1.82976e-05
-3.49595e-06
1.41957e-07
-2.88611e-07
0
8.23307e-08
-3.1314e-08
-3.90184e-06
6.04713e-06
6.54403e-07
-1.55921e-06
8.43879e-06
4.55539e-07
-5.13474e-06
-1.05819e-07
2.8473e-10
8.36654e-06
-1.61335e-05
2.14439e-09
-1.10624e-10
6.16829e-06
-2.20248e-05
1.17554e-05
0.000551998
2.99329e-05
5.53036e-07
3.34198e-08
-8.20603e-06
2.16613e-07
0
1.295e-06
-0.000384773
0.000384773
6.06221e-06
2.52958e-10
5.16826e-10
0.000334215
1.60885e-09
2.20957e-08
1.45464e-07
-1.54549e-07
3.0765e-08
-3.40965e-08
4.61702e-07
2.23852e-06
-8.23375e-05
0.000188409
-0.000106071
1.6653e-06
-2.29329e-06
-1.32446e-06
1.98408e-09
-5.84903e-07
6.36153e-07
2.91916e-08
1.92276e-06
1.09593e-08
-5.88237e-09
4.35022e-07
-1.81456e-06
4.56891e-11
3.67561e-10
-2.98963e-08
-5.68882e-08
2.92174e-07
-2.48734e-07
2.65867e-07
6.53699e-08
8.91872e-11
4.38172e-08
-4.72672e-08
0.000261093
-0.000645864
2.85516e-08
-0.000606486
-8.43118e-06
9.77976e-05
4.35244e-10
1.68845e-08
1.77691e-09
2.98579e-06
0
-3.23801e-06
0
3.13545e-06
-4.56094e-06
4.28361e-09
-1.16763e-09
6.85224e-08
1.3828e-06
-1.24464e-07
2.18192e-05
-2.15333e-06
-2.87062e-07
2.24932e-06
0.000128723
-0.000202716
4.08159e-08
-2.7957e-08
-6.01957e-09
4.63327e-08
-2.36911e-07
2.82371e-07
3.27512e-06
4.14495e-07
0
1.87202e-09
1.10989e-05
5.47558e-06
1.54425e-06
5.01174e-09
4.27991e-09
3.35543e-05
3.90811e-08
-4.00239e-08
-9.11594e-09
4.08004e-08
-1.25983e-07
4.69485e-09
-1.84175e-08
-8.44699e-06
-2.09503e-11
5.96748e-11
-5.38443e-07
5.72054e-07
1.28183e-07
-1.06589e-07
-5.53909e-07
9.18047e-08
9.79017e-08
1.93789e-05
-1.4826e-05
0
6.43726e-08
1.11815e-08
-9.6911e-09
1.8715e-07
-4.42646e-11
8.62666e-06
1.219e-06
-5.47224e-06
-3.14745e-05
5.37754e-06
1.54659e-07
5.60078e-09
0
2.86191e-09
-3.44292e-10
9.53797e-09
1.78935e-07
-1.80535e-07
-4.89037e-06
2.56044e-07
7.56222e-08
1.73663e-07
3.71943e-09
-3.91418e-06
5.54464e-07
0
8.37392e-05
-2.35302e-06
2.30296e-09
9.69554e-08
-6.06691e-08
1.9255e-08
6.09299e-07
3.4608e-08
-2.15728e-08
-1.53597e-05
1.6044e-05
4.95746e-10
1.11472e-08
5.20619e-06
-1.33191e-06
1.88046e-07
-1.68568e-10
5.99921e-11
2.97371e-09
3.18591e-06
-4.94948e-09
4.97625e-11
1.21539e-07
6.90204e-08
3.63976e-06
6.4089e-08
2.20432e-06
-7.02256e-07
-3.60267e-09
4.42295e-07
4.10162e-08
0.000475424
-6.41371e-09
4.89543e-08
-3.69986e-08
-1.0477e-11
2.12924e-10
7.2639e-08
7.22259e-11
1.64574e-11
-6.74181e-07
-0.000116848
-7.25954e-06
-4.40701e-07
1.93408e-08
2.1661e-09
1.59098e-05
0.000123387
0.000574349
4.46107e-08
-3.58308e-07
0
6.1424e-06
3.64776e-05
-3.75469e-05
-2.8461e-08
-2.07975e-07
9.78235e-08
1.1084e-08
1.01432e-08
2.40144e-10
3.4706e-08
-1.88264e-08
1.09263e-07
4.22513e-08
1.35107e-09
2.31186e-10
4.79847e-09
-1.61393e-05
7.16811e-06
1.77357e-06
-3.91291e-06
-3.76911e-09
1.21405e-06
2.42211e-08
5.03793e-07
1.10384e-07
-6.1277e-06
2.7858e-11
-6.52343e-08
1.88969e-07
-1.0577e-07
5.53751e-08
-2.04042e-06
2.43952e-07
-1.23605e-07
-1.38038e-05
-2.13235e-06
1.16097e-08
-2.52078e-08
4.82903e-09
1.06527e-06
7.56939e-08
5.73823e-09
0.000280276
0.000568451
-1.49859e-07
6.72705e-08
0.000435303
0
2.64511e-07
5.91206e-09
4.33328e-10
0
1.5304e-10
-0.00013229
-7.15842e-06
-1.44259e-09
2.75192e-09
2.83464e-08
9.78004e-08
9.94091e-07
2.73197e-05
-1.81583e-05
0
4.70103e-11
8.08971e-09
7.1245e-08
6.87212e-05
-1.15317e-05
2.43762e-07
1.7587e-05
-8.12253e-06
-6.96677e-07
1.69859e-06
4.43542e-08
-3.39248e-08
2.40232e-11
6.07558e-10
4.0638e-11
1.96157e-11
1.20826e-08
4.38287e-07
4.07718e-09
-1.33205e-09
2.04994e-05
-4.31466e-05
-3.0166e-05
2.9727e-05
-7.56744e-07
4.58478e-06
1.76487e-10
-7.76363e-09
1.60413e-11
3.96433e-05
0
1.49091e-07
-3.94823e-07
8.87199e-07
-9.78754e-06
3.52173e-06
-3.80248e-05
4.23919e-05
3.20542e-09
1.48474e-09
0.000105107
-0.000121749
-0.000107502
4.02629e-05
-4.54432e-05
-2.01159e-08
4.43195e-09
3.30237e-09
-1.13083e-09
1.51216e-08
2.54361e-05
2.5125e-09
-1.4439e-09
-0.000230667
-1.84064e-06
0
2.4541e-08
-1.62782e-08
3.14908e-07
5.40673e-08
1.69976e-08
3.28596e-09
-7.95115e-06
-2.13265e-09
7.21098e-09
0
5.6348e-09
-2.71805e-09
-8.77281e-07
-5.57655e-11
2.20256e-10
1.44743e-07
-4.15813e-05
2.06562e-08
1.06134e-09
2.4289e-08
-1.90507e-11
-6.74212e-08
1.14344e-07
5.86781e-07
1.34584e-06
2.52393e-08
6.21794e-10
2.14912e-08
-2.1967e-09
-0.00067547
0.00134561
1.46449e-07
3.37967e-11
0.000540058
5.44965e-05
-7.78701e-05
-7.91556e-07
6.59508e-07
4.78845e-05
-5.1341e-05
-9.14337e-07
2.03401e-07
4.78494e-07
-2.99805e-05
3.79758e-05
-8.92e-05
3.27288e-05
5.64669e-05
5.38895e-11
2.43861e-09
-2.50608e-10
-1.74366e-09
2.99311e-10
-1.036e-09
-2.00452e-06
2.23219e-08
-3.95836e-06
2.48178e-11
2.93943e-12
4.04455e-05
-2.88077e-05
-9.72586e-12
3.43237e-11
4.74389e-10
5.3652e-05
-5.62795e-05
6.4424e-07
6.71045e-05
1.83649e-05
-4.57415e-05
0.000118299
0.000152441
3.6854e-11
8.78821e-09
-3.32372e-09
5.79138e-07
-5.00968e-07
-2.70028e-06
5.14473e-06
-7.52966e-06
8.98984e-05
1.66191e-10
-6.93846e-11
1.32963e-10
-1.26208e-05
6.57225e-06
1.24961e-06
2.84048e-10
9.74675e-10
-8.8097e-05
-4.78484e-09
1.13261e-09
-5.60231e-07
-1.09473e-11
3.08684e-11
-2.6732e-07
3.87856e-07
5.30632e-06
0.000246304
-1.1215e-07
5.97087e-08
1.60437e-09
2.4527e-09
-2.92783e-09
1.1473e-07
5.75233e-05
-5.88433e-05
-1.69879e-07
4.61217e-07
4.87071e-09
-9.46063e-06
2.97529e-05
-3.81717e-05
-1.84313e-09
3.60671e-09
5.6674e-05
-0.000128083
1.20471e-08
-3.09447e-07
4.45242e-07
3.68396e-05
-3.3705e-05
5.6634e-12
-1.4357e-07
1.26397e-08
7.6061e-11
2.47399e-06
-3.43178e-07
6.09649e-13
2.41442e-11
-2.24e-08
7.88871e-07
-1.11567e-08
3.41929e-08
4.86691e-05
-0.000131007
-1.98746e-08
5.18836e-10
-3.1095e-10
-4.36211e-07
7.03052e-07
2.33379e-06
-1.26876e-08
1.11766e-05
0
4.2309e-10
-6.37175e-07
-6.40067e-05
-1.26825e-09
1.17786e-09
7.60556e-08
3.44398e-09
-4.30096e-09
-0.000269121
-1.01126e-09
4.78264e-09
1.88965e-07
-1.7982e-07
7.71892e-07
-0.000148525
-1.09227e-10
3.31912e-06
-0.000159241
5.93531e-05
-5.99068e-05
6.71295e-10
-4.9869e-08
2.4701e-07
4.5341e-11
-1.91861e-08
1.6914e-09
9.36832e-10
-4.47793e-10
4.34397e-11
1.74498e-09
4.24061e-06
0
3.38021e-12
2.17857e-06
4.24854e-06
1.28329e-09
-1.21717e-09
0
9.40937e-11
-0.00100733
0.00115808
0.00030993
-8.43704e-10
5.54398e-10
-1.72503e-07
7.52705e-07
-4.62404e-13
1.39378e-10
1.89865e-07
3.25921e-07
2.38309e-11
1.37933e-07
7.42003e-10
4.18676e-07
1.70643e-08
-3.41259e-08
1.59751e-05
2.54863e-09
-1.95703e-09
0.000208165
-0.00022844
0.00016216
-0.000105486
1.14501e-10
5.70671e-09
-6.52533e-09
4.73712e-07
3.77226e-05
7.58812e-09
0.00023457
3.9887e-06
-0.000370749
-0.000119679
1.825e-05
6.41327e-07
4.68975e-06
-7.93191e-09
-7.29645e-08
1.37048e-07
3.05551e-10
0.000306368
-0.000226416
0.00016842
-0.000442417
5.24094e-09
-2.93094e-09
-2.23074e-08
3.21689e-08
6.34079e-11
1.00702e-07
-1.16845e-05
2.60412e-06
0.000293226
-0.000337419
0.000952696
3.40617e-08
-6.10736e-08
2.79571e-08
-2.89422e-09
-0.000268697
0.000828191
-7.79579e-10
6.00511e-05
-6.02057e-05
2.93667e-12
2.09302e-09
-2.38171e-10
6.08735e-10
-8.28704e-12
1.28376e-10
9.68866e-09
1.58823e-07
-2.11346e-07
6.02901e-07
0
0.000153433
-0.000104763
3.40144e-11
-8.71944e-05
-2.93823e-08
3.57775e-08
8.1715e-10
3.54494e-12
2.75236e-11
-1.07521e-08
8.24064e-08
3.23955e-09
-1.69683e-07
4.61598e-06
2.53499e-05
-5.49818e-09
3.34385e-09
3.5199e-06
-8.72584e-06
1.68864e-09
-3.26458e-07
-2.46101e-06
1.49824e-07
-2.17575e-08
2.15313e-08
1.56662e-06
-0.00046678
-6.94824e-09
-2.87259e-09
3.91342e-10
-6.328e-06
0.000211147
-0.000613939
3.12821e-08
7.57379e-08
1.27548e-10
6.73405e-05
-0.000208439
3.5847e-09
1.73991e-05
-1.37581e-05
-6.91199e-07
7.36464e-07
-3.64112e-12
5.15208e-11
8.31829e-09
-1.2631e-09
-0.000176571
3.17453e-08
-4.94694e-08
-2.47925e-10
-0.000198201
2.91033e-10
4.9228e-11
-1.26634e-05
2.38576e-09
-1.74797e-09
-8.42402e-05
-6.09559e-10
4.27316e-10
-4.47456e-05
0.000116248
-1.32296e-05
-3.09025e-06
1.8905e-06
7.10963e-11
2.75582e-10
-8.06999e-08
-7.12558e-06
-8.47562e-08
-5.50283e-08
6.03531e-08
2.67941e-09
-8.59073e-07
8.08992e-09
8.12486e-05
-0.000129481
-6.54773e-07
8.08991e-07
-6.01483e-05
6.01845e-05
-8.96641e-05
-0.00123983
0.00102201
7.72688e-05
-0.000208275
4.21445e-06
-7.31423e-05
0
1.42432e-07
-4.00226e-10
4.16214e-10
1.07643e-07
8.98799e-08
9.58043e-06
-8.45298e-06
1.61128e-10
1.29718e-09
7.15729e-12
2.04443e-11
-3.81246e-05
-9.10648e-11
1.38324e-09
0.000158742
-8.1473e-05
1.219e-07
-0.000267806
2.99763e-08
-6.18158e-05
0.000116262
0.000467742
-0.000756682
-0.00014154
0.000157034
1.98216e-08
0
-0.000829677
0.00114116
-9.65055e-05
-0.000309331
8.08941e-05
-0.000170214
0.000219814
-3.05091e-08
5.35527e-08
0.000105486
-8.01358e-05
-3.13069e-08
-4.55851e-06
4.78245e-06
-1.60024e-05
8.29157e-07
-0.000239994
0.000260003
0.000113462
-2.08151e-06
-0.000277591
0.000101447
3.9817e-10
0.000125562
-6.03643e-05
-0.000125131
-0.000156278
0.000237177
2.51157e-08
0.000158246
-7.60858e-05
-3.11847e-06
1.33132e-06
-6.60473e-08
-0.000269144
0.000302022
0
1.689e-10
0.000698778
-0.000299973
-8.48267e-09
3.36122e-09
-2.56387e-07
2.43091e-07
2.82906e-07
-1.58689e-08
1.74277e-08
3.18941e-09
0
-2.39935e-10
-4.25542e-09
2.48809e-09
2.05194e-10
7.57148e-11
4.47627e-05
-4.92549e-06
2.80637e-08
-2.65894e-08
-0.000134382
1.85251e-06
-6.23467e-07
3.47214e-09
-1.19704e-09
5.4601e-11
0.000633735
-6.47135e-07
5.39784e-05
-0.000327651
0.000349951
-1.01723e-06
7.4502e-10
-9.10912e-09
4.77884e-10
-7.09903e-07
1.57078e-06
-1.3574e-07
-0.00012853
2.40513e-06
-2.59787e-06
1.03299e-07
1.68503e-09
-7.96644e-07
9.02657e-07
0.00102422
-0.000476478
-0.000567496
9.82038e-05
-9.77602e-05
3.99791e-09
-3.74311e-09
1.47524e-08
-2.8496e-09
2.6285e-08
1.18976e-07
1.77642e-09
-1.92224e-09
9.32526e-06
-9.25307e-05
-1.93762e-11
3.96834e-11
-7.58948e-08
1.62755e-07
9.25307e-05
-0.000290731
4.61278e-07
-3.26711e-07
-2.63853e-10
-5.99992e-05
3.1583e-07
-1.57781e-09
2.94153e-10
3.50107e-10
1.00623e-08
-0.000372034
0.000414631
1.02744e-08
0
1.11528e-08
1.52809e-08
0.000290731
-0.000467302
3.93243e-11
1.14359e-11
0
2.10133e-07
5.91578e-08
8.23508e-11
6.88079e-10
1.17352e-07
-5.77935e-10
3.24688e-10
5.03609e-11
1.30965e-08
3.8826e-05
-0.000135331
4.36687e-09
0.000103375
-6.45487e-05
-1.45483e-10
0.000245974
-4.35688e-08
5.66085e-05
0.000104086
-0.000117553
-4.41935e-06
1.90722e-06
8.01358e-05
-2.61573e-05
2.73589e-11
1.2257e-11
1.11481e-06
-1.20554e-06
2.19016e-05
-0.000876959
0.0007956
9.68577e-05
-0.000563638
2.08963e-08
-5.8213e-12
-9.22932e-10
-1.36289e-08
-9.76089e-05
-1.19171e-09
1.76037e-10
-9.2054e-10
0.000467302
-0.000735108
5.39852e-07
-9.72905e-08
0.00123006
-0.000174095
5.19382e-11
-1.20778e-12
0
8.8593e-09
-2.23485e-06
3.87776e-11
5.60079e-07
0.000938054
-1.03367e-08
1.07216e-08
-0.000425382
0.00043648
3.73316e-08
1.7926e-08
-1.52063e-07
1.54074e-07
-3.87478e-07
5.2861e-07
-0.000146637
4.90286e-05
0
1.19457e-07
-3.9939e-08
8.23437e-05
1.12486e-07
-3.93724e-08
4.60674e-11
-3.0489e-07
4.55357e-08
4.70014e-08
0.000136064
-9.75107e-05
3.43528e-11
4.5659e-12
3.42201e-07
-2.23466e-06
0.000735094
-0.000756631
1.10317e-08
3.66738e-08
3.34435e-11
7.99836e-08
-1.22606e-06
1.36513e-06
-4.0092e-09
4.42893e-09
5.77635e-08
8.57369e-05
-0.000200607
0.000109846
-3.27878e-08
4.30912e-08
4.14499e-07
-4.60853e-07
7.55818e-08
-2.00259e-08
5.79936e-05
-5.75099e-05
6.23859e-09
2.61573e-05
-4.25571e-06
-5.49264e-05
5.57643e-05
-4.2909e-07
8.97477e-08
-3.19738e-07
7.13661e-09
-5.62865e-05
5.69934e-05
0.000774966
-0.000547337
0.00100577
-0.000453815
-6.57433e-05
-5.8431e-05
5.8865e-05
3.00418e-08
0
3.53858e-09
1.06263e-10
1.17445e-06
-9.02788e-07
3.43123e-10
-1.28432e-09
1.23301e-07
-7.21307e-07
5.34551e-08
1.50171e-09
0
-0.000124484
8.36393e-05
2.32305e-06
-1.75327e-06
-9.59171e-05
7.03371e-05
-3.83056e-05
1.45714e-07