/*--------------------------------*- C++ -*----------------------------------*\
  =========                 |
  \\      /  F ield         | OpenFOAM: The Open Source CFD Toolbox
   \\    /   O peration     | Website:  https://openfoam.org
    \\  /    A nd           | Version:  8
     \\/     M anipulation  |
\*---------------------------------------------------------------------------*/
FoamFile
{
    version     2.0;
    format      ascii;
    class       volScalarField;
    location    "0.8";
    object      alpha.water;
}
// * * * * * * * * * * * * * * * * * * * * * * * * * * * * * * * * * * * * * //

dimensions      [0 0 0 0 0 0 0];

internalField   nonuniform List<scalar> 
1924
(
0.1092
9.61409e-05
8.64034e-05
8.64066e-05
8.8615e-05
8.84261e-05
0.000114772
0.000433041
0.000425546
9.04479e-05
0.000317161
3.02703e-05
0.000592691
3.02703e-05
0.000393131
0.000314717
0.00157506
3.02393e-05
0.246366
3.3541e-05
0.0540185
8.41351e-06
0.000822346
3.30959e-05
1.09001e-07
0.00081989
0.00128443
0.00314029
8.8615e-05
7.66991e-05
3.10534e-05
0.000202397
0.21781
0.00224474
0.00111166
0.00945698
0.00142424
0.000803324
0.000225743
3.03734e-05
0.00142424
0.00947488
0.00085587
0.00731952
7.55326e-05
0.000387088
0.0117493
8.31783e-05
1
0.942545
0.965365
0.000142863
1.9474e-05
0.999566
3.04632e-05
8.62216e-05
0.185429
9.25648e-05
0.000128692
0.000974176
0.0099665
0.000406226
0.00461696
7.4617e-05
0.999549
9.70943e-05
0.000518459
0.000607306
9.49592e-05
0.470004
0.00623273
0.00069128
7.4617e-05
0.000772367
0.000957086
0.000302087
0.000155512
0.000957086
7.54259e-05
0.00461735
1.97779e-06
0.00103118
7.67756e-05
0.000140995
0.516975
0.00307724
9.08956e-05
0.000357168
0.999977
0.00384932
0.000182858
0.00135274
3.04773e-05
0.00107173
0.000140973
0.986416
0.000108188
0.000117403
0.000540253
0.000309166
9.8221e-05
0.000140935
0.000165419
0.000977257
9.93695e-05
0.000183313
0.00066434
5.24279e-05
0.000931687
0.00166071
0.000375326
0.00102011
0.00166214
7.21004e-05
0.000113298
0.000141254
8.71054e-05
0.000323558
0.00690951
0.000889927
0.565736
1
0.863576
0.00348162
0.000216513
0.000513297
0.00172836
0.00071546
0.00173154
1
0.000375326
8.87756e-05
0.00160152
7.56715e-05
0.000140995
0.00152705
0.00143127
0.00143127
3.47244e-05
0.00168839
8.74169e-05
0.000197746
0.00728479
0.456353
8.31017e-05
1
5.2618e-05
0.00168801
0.00033493
0.00329023
9.33464e-05
1
0.00245111
8.14574e-05
8.64551e-05
0.00162958
1
0.00111324
7.09406e-05
0.00309004
7.25385e-05
3.08816e-05
7.60273e-05
1
0.00207441
0.0015455
0.00164291
1
0.000901439
0.00172998
8.8615e-05
0.000112094
0.000376587
0.00131535
8.70278e-05
1.51101e-05
7.36447e-05
0.0133263
0.0180664
7.9354e-05
0.000485183
0.000602487
0.000914905
0.00163761
1
0.0128816
0.00245349
0.00129419
0.000297409
7.02452e-05
5.94263e-05
0.000434339
3.46497e-05
7.74212e-05
0.000893944
1
0.00130647
1.51101e-05
5.64439e-05
1.51101e-05
0.470187
0.00725348
0.00155263
0.000484545
8.8615e-05
4.01717e-05
0.00030035
0.00248526
0.00109915
0.00727675
1
0.00173152
0.000268416
0.0014957
0.000600498
0.000181471
0.000601704
3.92549e-05
0.000486306
0.000243159
0.000414785
0.000165278
0.00163185
0.00017477
0.000476649
0.00130229
3.16897e-05
0.000370129
0.000661911
1.53737e-05
3.04859e-05
0.000177494
2.09441e-05
0.00709467
0.00130631
0.00314893
0.000476215
0.000486306
0.000908244
1
0.000762814
4.01717e-05
0.00036891
0.00248751
0.00239954
0.000140935
0.000415617
8.69195e-05
0.000920185
0.000381217
0.00115914
1
0.000125955
0.000342895
5.4419e-05
0.000146953
0.000229678
0.000360751
5.68946e-05
0.000486362
0.00139884
0.000113225
0.00129526
0.000217467
4.44857e-05
0.000957354
0.000537161
0.000377804
3.04859e-05
0.0355958
5.39684e-05
0.000168628
0.00100583
0.000297446
0.000215298
2.06952e-06
9.03084e-05
0.00128607
0.000113157
1.94989e-05
0.362516
1
0.000358052
0.00010721
0.576509
0.00053709
3.60614e-05
1
0.00048457
4.01717e-05
7.88099e-05
0.000946501
0.00128895
0.000621599
0.232863
0.00695359
0.000142294
0.00248295
0.000151248
0.000151744
1
7.9354e-05
0.000674377
0.00186753
4.68624e-05
0.000167664
0.000538077
0.000674398
0.000108288
7.43587e-05
0.000583425
0.0148544
0.000128842
6.49927e-08
3.932e-05
0.00053716
0.00150091
0.000306
9.12951e-05
0.00150896
0.000957077
0.000990805
7.88722e-05
0.000527014
0.000839504
1.97502e-06
4.11106e-05
0.0012474
8.64567e-05
3.47924e-05
0.000148135
0.000570072
1.23666e-05
4.68949e-05
0.000926396
0.00128985
0.000974176
0.000100665
0.000142941
7.90188e-05
3.29041e-06
0.000170614
7.04001e-08
0.00144157
0.000148411
0.000699549
0.0152581
0.000234143
0.0237789
0.00102443
0.00589372
0.00716308
0.00859546
0.000671737
0.000392391
0.000187359
1
0.000397402
2.22325e-05
0.244559
0.0012797
0.000155646
0.000673555
0.000288021
0.00396596
7.90188e-05
6.38065e-08
0.00111176
0.000147852
0.000103517
0.000194658
0.00150166
0.00142424
0.00117418
0.000972549
0.00831336
0.000151744
0.000202085
7.52054e-07
0.000251744
0.000509555
0.000374011
4.58829e-05
0.00132647
0.000959817
0.000194676
0.000956261
0.000570911
0.000229678
9.21443e-05
0.00219951
0.000438168
0.000301512
0.000574895
0.000272682
0.000484038
0.000891854
1.29132e-07
0.000362583
0.000697106
1
8.34238e-05
3.03462e-05
3.08816e-05
1
0.000966582
4.82536e-06
0.000454022
0.000114324
0.00602409
0.000589167
7.52205e-05
4.7076e-05
0.000360709
0.000152478
0.00186753
2.11121e-06
0.000155646
0.00516597
0.000291273
0.000289199
0.00103926
2.57005e-06
0.00114729
0.000394636
0.000671737
0.00020493
8.81116e-05
7.04001e-08
0.000614093
0.000325737
1.99057e-06
0.000483885
0.00240453
0.000147852
0.00036899
0.00051051
0.801637
0.000483978
3.10545e-06
0.000811176
0.000267291
0.00130185
0.012737
0.00025312
0.00333499
0.000177494
0.000273161
0.000160464
0.000574379
0.000307449
1.03173e-05
0.000387949
0.000657121
0.00471343
0.000635575
0.000316465
0.000155717
0.00457406
0.000438215
1.96047e-06
1.41819e-07
0.00489761
1.86376e-05
7.82823e-05
0.000574895
0.000190904
0.0001561
0.000485178
7.54259e-05
0.00662799
7.52205e-05
0.000957306
1.74222e-05
2.92312e-05
1.96125e-06
7.4617e-05
5.10537e-05
0.000402008
0.000498012
0.00016389
0.000479992
0.00031267
0.000250874
5.28364e-06
0.00274112
0.00200435
0.000295414
0.000205093
0.000228333
0.406355
0.000205093
7.52205e-05
0.000288984
0.000663945
4.69989e-06
0.000444606
0.000308311
0.00340684
0.00149336
0.000670418
0.00017916
0.000148419
3.03015e-07
3.03455e-05
0.00125725
0.00015661
0.00662799
7.67462e-05
0.000571378
0.000233832
2.95611e-06
0.000309312
0.00121579
0.000443239
0.00016198
1.70718e-07
0.000536583
0.000485178
0.000441078
0.00466223
0.00064081
1.99705e-06
0.00056962
0.000213176
0.000640734
0.000945543
0.00994233
0.00662799
0.00016598
1.56706e-05
0.000100678
7.52205e-05
0.0031743
3.06072e-05
0.000493057
0.000287106
1.12339e-06
0.00731692
0.0002127
4.17662e-05
0.00015986
0.0695365
7.19238e-05
0.000494939
0.000865188
0.000435447
0.000168361
0.000502424
0.000667936
0.00171892
0.000305736
0.000307471
0.00282674
0.000705721
0.0031888
0.0104402
0.893071
0.0065476
7.55518e-05
5.45185e-05
0.0042054
0.000212736
0.000356475
1.98383e-05
0.0015551
1.96047e-06
0.000229155
0.000954849
7.59442e-05
0.000139469
0.000585107
0.00451722
0.000881184
0.000537545
7.95334e-05
0.0180682
3.03442e-05
0.000476534
0.00568468
3.0762e-07
0.00021285
0.000485178
0.000546806
0.999522
0.109136
0.000451691
0.0238772
2.96796e-06
0.00056063
0.00587239
0.00466223
0.273457
0.948178
0.810624
0.000566858
0.000478799
0.000347724
0.00050763
1.56769e-05
0.0327619
0.000613311
0.000174236
0.00167222
0.000617214
0.000386752
0.000205131
1.48569e-05
0.00105922
0.0239756
0.000733955
0.00124736
0.0121
0.00023284
6.39467e-07
0.000308074
0.000868095
3.07147e-05
0.647526
0.000214703
0.000571331
2.25388e-06
0.000421543
0.00095709
0.000481541
0.000873486
0.00832237
0.000209605
0.000171649
0.00458365
0.000528743
0.000119855
0.00035938
0.0125579
0.00254301
0.0330238
2.24029e-05
0.0127059
0.000585396
0.000562717
0.00147623
0.00184321
2.4736e-05
0.0048003
2.84321e-05
0.00121798
3.88444e-05
0.000699133
0.000587797
1.94062e-05
0.00140433
0.00180786
0.000722726
0.000805541
0.00822138
0.000329386
1.56706e-05
2.18205e-06
0.00382526
0.0171222
0.00566926
0.284673
0.000939881
8.5108e-05
2.75006e-05
0.000883118
0.000356473
0.000688604
0.00328362
2.93361e-05
9.44421e-07
1.99705e-06
0.0437573
0.000219805
0.00135615
7.47162e-06
0.000478875
0.000295414
0.311001
0.00404803
1.41166e-05
0.000158418
0.000189023
0.00050619
0.00518159
0.000442431
0.000505577
0.967447
0.000266532
0.23135
7.99553e-05
0.000182612
3.07516e-05
2.24177e-05
1.61234e-05
0.00126104
0.00404594
2.23404e-06
4.70277e-06
0.00410269
4.0667e-06
0.00275767
3.66876e-05
3.03462e-05
0.212402
3.66876e-05
0.00184332
0.000307889
0.000562329
0.00257942
0.000161028
0.173499
0.00184321
1
7.10898e-05
0.000164671
0.00151656
0.000139108
0.00125537
0.576456
2.17957e-06
0.000290272
2.42994e-06
0.00748626
0.000307471
0.234709
0.0133263
0.289185
2.99817e-05
0.000554548
0.000437232
0.0188464
0.0015423
0.00104148
0.000314241
0.000351179
0.00050763
0.00136604
0.000191289
0.000339795
0.00284578
4.9931e-06
2.08068e-06
0.654221
3.03115e-05
0.00679847
2.00424e-05
0.00478899
0.00238726
0.000379722
0.00638387
8.18856e-08
0.000267724
0.00383985
0.000756033
0.00124549
0.000552068
0.00628743
1
0.000599076
4.67853e-05
1.11934e-06
0.00121606
9.52224e-06
0.00638381
0.00487068
0.000284605
8.75035e-07
0.331322
0.000125481
0.000773611
6.05378e-05
0.0985861
0.000930979
3.03734e-05
4.76818e-06
0.0010531
6.74354e-05
0.0638045
0.00114596
0.0239928
2.18227e-06
0.000201664
5.37655e-05
3.63124e-05
3.39821e-05
0.000252112
6.25275e-05
0.00126424
0.000213614
0.00986801
0.000866884
0.000282166
0.000327901
8.80225e-05
9.78171e-06
1.69417e-06
1
0.000414797
0.000531269
0.00464609
3.0064e-05
0.000118099
8.88159e-05
2.25812e-06
0.00139329
0.00383924
0.000776288
7.76389e-06
9.17076e-06
7.13407e-06
0.000536611
0.000261109
0.532123
2.02601e-05
0.00481572
0.000199666
0.119787
8.57338e-05
0.00691169
0.000388305
0.000998644
0.00125473
0.352952
0.000246289
0.000551312
8.75035e-07
6.94423e-05
4.92075e-06
0.00485936
0.000520238
1.99497e-06
2.18447e-05
3.23312e-05
0.00638415
1.06858e-06
2.18227e-06
0.00030138
3.21403e-05
0.999999
3.07516e-05
0.512516
0.000284398
1.03844e-06
1
0.000877349
0.000119745
0.00637206
0.000793536
0.00086261
0.000287158
6.98305e-08
0.00591078
2.18213e-06
0.000763037
1.09772e-05
0.000424012
5.3994e-05
0.001841
4.485e-06
0.000297036
0.00129374
4.63801e-05
5.05101e-05
0.0247712
1.40304e-05
0.00183716
1.13824e-06
0.0058832
0.0161316
1.97424e-06
0.000139338
0.0160684
0.000182858
0.000120601
0.000784463
2.07711e-06
0.0159382
0.999446
7.93978e-05
0.00209432
2.03298e-05
0.000786423
3.57143e-05
1.76477e-08
2.66906e-06
1.21741e-05
4.14014e-05
2.00978e-05
2.45988e-05
8.73869e-07
9.97945e-06
0.402615
0.00125792
2.06991e-05
3.90445e-06
9.79639e-07
0.000793681
0.00154265
0.000177931
0.00485927
3.17307e-05
2.18662e-05
0.00402179
1.03844e-06
0.00320298
0.00126424
0.352952
0.000284931
0.00126791
0.000259098
0.00100318
0.000143771
1
0.00192359
8.39949e-07
0.292168
1.03844e-06
0.000121439
2.24965e-06
6.06205e-06
9.54844e-06
0.00491763
1
0.000334653
0.0048593
5.31369e-06
0.000521149
0.000378572
0.000284889
5.44074e-05
0.000792769
4.16882e-06
0.00104357
5.21549e-07
4.21787e-05
5.47511e-05
0.000427778
0.000269476
2.03066e-08
2.18748e-06
1
4.75321e-05
0.999728
0.639594
1.11855e-06
7.33825e-05
3.17841e-06
0.00683266
0.000379858
0.00219844
2.681e-06
0.00859546
3.4868e-05
0.000285835
0.362468
0.0382535
0.00691226
0.00485962
0.000359523
0.304074
1.19567e-06
2.43052e-05
3.73323e-05
0.00183716
3.11427e-06
0.00129194
0.00550427
6.42421e-05
0.00185596
2.20754e-06
2.37836e-05
1.03134e-05
1.06858e-06
0.000920814
0.00028223
1.6128e-08
0.000284931
1.85997e-05
8.59301e-05
0.000524774
0.000284931
0.0115577
5.1553e-05
1.03844e-06
4.33911e-05
0.00549242
0.00078663
0.00384477
0.00012945
5.61153e-06
3.2535e-07
2.26889e-06
6.83588e-06
5.43598e-05
1.29242e-05
0.00371024
0.000154647
7.69954e-07
0.00485931
6.10037e-05
0.12477
0.00220914
2.74785e-07
2.46123e-05
0.000167267
1.82737e-06
0.0003691
2.44214e-06
0.00078663
3.54962e-06
0.0155596
0.000186897
8.84689e-08
2.81859e-07
0.000185561
3.39545e-08
8.32209e-05
2.41131e-05
0.00169018
0.00060358
2.80603e-07
4.91899e-05
1
2.26657e-06
2.00482e-06
5.41603e-07
2.41131e-05
1.73736e-08
7.54259e-05
0.000152814
0.190637
0.0155617
8.59413e-05
3.88291e-07
0.0243023
0.00851271
7.11868e-06
0.000100222
0.00395224
0.00547719
0.0427798
1.7559e-05
3.87577e-05
4.69306e-05
0.000161722
1.28704e-06
1.37598e-06
0.000169027
1.41033e-05
4.62445e-07
3.54962e-06
0.00126224
0.00486181
0.00147279
1.97502e-06
3.62795e-05
4.2159e-05
0.001271
1.72291e-08
0.000129408
8.40165e-05
0.0429721
0.000154087
0.00390826
0.00485939
2.15585e-06
2.80603e-07
0.000466668
2.81674e-07
0.405919
1.86706e-05
0.278654
3.64202e-06
0.000729054
2.29577e-05
6.96897e-08
0.622259
1.47607e-07
0.000250471
0.000764544
0.0019848
2.75288e-08
0.000605084
0.934166
0.0164424
0.00447952
1.45372e-06
1.7474e-08
1.30659e-06
1.61056e-08
0.000437044
1.5787e-07
0.00112327
0.00147643
0.00272347
9.52912e-08
4.57925e-07
0.000126532
4.50192e-08
0.0338456
0.00012918
0.000782364
0.00423815
0.00243537
1.70356e-06
0.559668
0.0357052
1.03871e-05
8.67371e-06
1.47501e-06
0.0351402
2.79781e-07
0.654221
0.654216
3.69808e-05
0.0130462
3.3987e-05
1.94448e-06
0.000719143
5.12948e-05
1.85907e-05
0.0375722
2.74487e-06
8.15732e-07
2.13696e-07
0.000747706
1.1865e-07
0.00118705
0.00294834
1.90431e-06
2.64431e-07
2.48844e-05
1.52207e-05
0.0014459
0.00107702
7.9952e-05
1.98221e-07
1.97522e-07
0.97003
0.00042491
1.19691e-07
0.598554
0.807937
0.0424674
0.000680701
0.00319143
0.000582775
0.000795356
0.0018674
0.970782
1.2416e-07
2.29233e-07
8.31421e-08
6.73978e-08
2.76573e-07
4.17575e-05
0.00486181
1.72255e-08
0.0142548
1.61203e-08
1.61774e-08
0.704286
0.00352781
0.00173577
0.380901
0.419694
1.62754e-08
2.35664e-07
0.000781834
0.000533389
0.00447952
0.0460875
0.0609327
3.78701e-05
1.69278e-07
1.20106e-07
0.00078663
7.51819e-05
2.79792e-07
1.73022e-06
0.0736651
4.38481e-07
0.00351323
1.61014e-08
0.000128951
0.725767
1.49874e-05
1.82405e-06
9.21879e-05
0.0037681
0.00012948
1.78916e-06
0.00159056
0.00390826
8.68779e-07
1
1.81166e-05
0.000132415
0.037689
1.72291e-08
7.92657e-06
1.19697e-07
0.00117695
1.96389e-08
0.000215191
1.05937e-05
1
1.19556e-06
6.6189e-08
0.000176437
1.13858e-06
0.0754685
3.12876e-07
0.00177446
0.717711
9.14697e-08
0.000290685
7.49122e-07
0.996855
0.950952
3.57177e-06
1.16775e-05
0.000168499
0.238814
1.57076e-05
0.0130112
0.0875072
0.475054
0.00392562
2.16221e-07
5.80902e-05
1.6452e-08
2.47188e-07
8.38211e-07
6.62844e-08
9.03824e-07
0.00303991
1.72277e-08
0.000129471
0.0010748
7.42665e-08
5.32175e-08
0.954782
0.993588
7.48777e-08
0.00014665
3.98994e-08
0.000129471
0.00679128
1.61072e-08
0.000131808
6.62844e-08
0.00013356
2.17795e-06
0.00390887
1.97098e-07
0.87589
1
7.36558e-08
2.79792e-07
0.000179171
0.863978
1
1.1501e-05
0.4194
0.0748851
0.00017354
0.00118485
1.25326e-06
0.000137404
1.97522e-07
0.475376
0.746401
2.07164e-07
1.04767e-05
7.52767e-08
0.000139062
0.00480645
0.178686
0.91356
2.15052e-06
2.79392e-06
0.994083
1.09561e-06
0.00406689
1.82436e-06
6.9765e-08
5.50438e-08
1.05572e-05
3.4174e-06
0.000151589
4.6381e-06
1
1.99726e-08
0.325573
4.64527e-06
8.12124e-08
1.60993e-08
1.17337e-05
0.00215252
2.79372e-06
0.00103172
1
1.77355e-07
0.000298277
2.31661e-07
3.30234e-05
0.00114909
0.000959929
8.91459e-07
0.000134108
0.00265562
1
5.14021e-05
2.13429e-07
0.000504823
0.777631
4.20097e-06
5.41609e-08
0.643884
4.66735e-06
0.000706971
0.000364588
1.39064e-05
7.91442e-08
0.00155294
4.0866e-06
1.68658e-07
0.734294
7.76246e-06
2.35559e-07
0.177725
9.46199e-08
1.6103e-08
0.026252
1.96725e-07
0.0923955
8.05384e-08
0.003188
0.00321288
1
0.00513776
3.20355e-05
0.97721
2.13688e-07
0.00262244
0.123381
7.34624e-05
1.1501e-05
2.64638e-06
1.10956e-05
0.666415
0.00354526
0.00865349
0.000110785
0.0040068
0.900589
0.650626
0.968311
1
0.00638448
0.968478
5.47603e-05
6.88059e-08
0.000136605
0.00146389
6.88059e-08
9.93414e-08
0.265485
1.60976e-08
0.00390206
0.00386732
7.92528e-08
6.49303e-06
1
0.00378441
9.70557e-05
0.87808
1.05173e-05
0.285618
0.80774
0.248962
3.46953e-06
0.995906
1
0.999997
0.218943
1.36843e-06
1
0.0015416
0.00130379
0.0025598
0.239278
0.00160129
0.107243
1.9756e-07
0.837154
0.140637
1.1501e-05
0.785298
0.00930684
7.84338e-05
1
0.00393269
0.175513
1.3877e-07
0.657782
7.16279e-05
1.38418e-07
3.33748e-06
0.00130029
1.30613e-06
2.51629e-06
8.0292e-07
1.43243e-07
0.347892
1.42618e-06
0.726181
0.000188319
2.16426e-07
4.0885e-08
0.641241
1.51771e-05
0.978886
1
0.182877
0.000397457
2.11525e-07
1.41456e-07
5.14021e-05
6.95279e-05
0.827531
0.000162886
4.53e-05
0.00406852
1.99779e-07
0.000112738
0.986339
0.00976294
1.97278e-07
0.000165939
1.30749e-06
0.000112743
8.92723e-07
0.655286
1.6094e-08
3.0623e-05
0.878317
7.38273e-05
1.23466e-06
0.00479675
6.03995e-05
1.61889e-07
2.56609e-07
0.190635
1.3261e-06
8.51102e-06
1.97028e-05
0.878317
1.65391e-08
0.000345012
1.86494e-06
2.70694e-05
0.00390841
4.97098e-08
2.1005e-07
5.54263e-05
7.77031e-08
3.03793e-08
1.3261e-06
1
4.00633e-07
1
7.80144e-08
0.985539
3.77329e-05
1
0.00454653
0.0099168
0.00415682
0.00103541
1
1.61354e-08
4.99311e-05
1
0.752283
0.995913
1
1.22216e-06
1.68658e-07
1.27678e-06
1
1.61889e-07
1.61889e-07
0.878317
3.15597e-05
0.911385
1.61764e-08
6.7923e-08
0.000198725
1.61665e-08
0.00130103
0.985621
1.98204e-07
0.195093
8.3029e-06
1.64601e-07
1.96851e-07
0.00016686
1
0.355355
8.0395e-06
0.60099
0.289262
9.89447e-06
0.248632
1.64857e-08
2.0362e-05
0.239421
6.74823e-05
0.00638589
0.239081
1.617e-08
9.75889e-05
0.809454
0.129435
0.175691
4.13592e-05
7.96146e-07
1.61734e-08
0.000104578
0.000105463
1.4934e-06
1.63186e-06
0.259893
0.708042
0.708318
0.1906
8.77843e-06
3.77554e-05
8.33229e-06
0.00489441
5.16959e-06
1
0.00534022
7.29245e-05
5.03601e-05
0.00509011
0.747689
0.856323
1
0.194405
0.0047046
1.02301e-05
0.948198
3.28907e-05
4.71095e-07
0.00104435
1.61889e-07
0.00016686
0.615899
0.878317
3.77554e-05
8.66507e-06
0.878317
1.22077e-06
0.0313504
0.000723342
0.0017534
1
0.00976294
0.00972534
0.0072731
0.882347
4.73984e-07
1.85064e-07
0.000671912
8.84451e-06
0.000149552
0.000806502
8.06963e-06
7.76503e-08
4.85167e-06
0.878317
0.000187053
1.61915e-07
0.000245231
0.932179
1.63035e-07
0.195563
7.7513e-08
0.998083
0.000132706
1
1.61915e-07
1.06674e-05
0.00126751
1.10072e-05
0.0104853
0.000413186
1
0.751936
0.00481414
0.00126259
7.77031e-08
1.87957e-06
9.75443e-05
2.18725e-07
0.000309264
0.00454016
8.0858e-06
0.00486394
0.00486544
2.10314e-07
0.878307
3.77991e-05
5.23971e-05
4.43879e-07
7.29486e-07
8.99124e-05
1.5371e-05
2.7686e-05
8.41804e-06
1
0.00010568
0.186792
0.748169
1.19018e-06
0.00493114
0.751936
2.75384e-07
0.000617724
0.000831683
0.00525383
0.000198659
0.00741474
0.0011715
8.46332e-08
5.59483e-05
0.00534022
0.00363028
8.04395e-06
0.00513195
9.70717e-05
0.000224516
0.999321
4.49633e-07
8.32089e-06
0.00113441
0.00488978
8.34519e-06
0.000187053
0.77001
0.747393
8.46332e-08
1
3.77554e-05
0.000187053
1.63533e-07
2.31314e-07
0.000299885
0.000891006
0.00473239
1.66604e-07
2.19934e-07
0.000197522
2.886e-05
3.95597e-05
0.000187223
1
1
0.00013996
0.000187053
1.69217e-07
0.985964
0.000508969
0.000831456
0.00127444
2.7519e-07
1.61803e-05
0.00268973
0.000117178
0.0835235
0.0319804
0.00015949
5.23185e-05
0.000198026
8.04909e-06
0.00175821
0.00270659
9.47991e-05
0.00364203
0.00384436
0.00298782
5.27439e-05
0.98666
9.47551e-06
1.05832e-05
8.04436e-06
1
1
2.81589e-05
5.71668e-05
1.82553e-07
0.00407753
0.00456177
8.83326e-06
3.69708e-05
3.6902e-05
5.82363e-07
8.08579e-06
4.10834e-07
0.000171504
0.00292775
0.00363862
5.58358e-05
0.00490903
1.05165e-05
0.000974769
2.40976e-06
0.00239045
0.0037868
0.00381106
0.000111674
0.00489275
4.70085e-06
0.00364949
5.67755e-05
0.000259183
0.00298782
6.03897e-05
9.47551e-06
0.0824908
0.0819492
0.0866012
0.00118877
0.751936
0.00202774
0.0029487
3.29123e-05
8.26645e-05
0.000846727
0.00365547
0.00459466
0.00459315
0.00459887
0.00384896
0.00380267
0.00384426
0.00161397
0.00150585
2.76397e-05
2.06854e-06
8.04486e-06
0.00379627
0.00280093
0.00295102
9.47551e-06
9.09133e-05
0.000956763
8.04486e-06
0.00155191
1.15652e-05
5.68987e-05
0.0041891
0.00419397
9.47551e-06
0.00491264
0.00472902
0.00472902
0.00472776
0.00287247
0.00288064
1
1
1.43526e-12
1
0.00415085
1
0.0846783
0.0698263
0.00384896
0.0851688
0.0858648
0.0881831
0.0307882
0.068886
0.086728
0.0840556
0.00459259
0.00459228
0.00457077
0.00471818
0.00401806
0.00459259
0.00459279
0.00472776
0.00782612
0.00798188
0.00695708
0.0142203
0.0321365
0.0118245
0.00459545
0.00118843
0.000909848
0.000113587
0.00459279
0.00222369
0.838422
0.969618
1
0.575492
0.999971
0.712666
0.98666
0.00405953
0.924297
0.98666
0.98666
0.999999
0.000909848
0.993044
0.90694
0.694085
0.999971
0.00209904
1
0.815122
8.55729e-07
1
1
1.53753e-05
0.995035
0.654221
0.654221
1
1
1
1
1
1
0.10525
0.999972
1
0.970774
0.970774
0.970774
0.999998
7.89403e-05
0.00690951
0.849713
0.999998
0.999997
1
1
1
0.280561
0.000632308
0.956335
1
0.999997
0.848463
1
1
1
1
1
1
1
0.999996
0.228149
7.94434e-05
0.970686
0.000126374
1
0.970774
0.999997
0.969932
1
0.970772
0.000484256
0.935747
0.508964
0.992047
0.970774
0.999998
0.956334
1
0.8259
6.27422e-05
1
0.00110857
0.654221
0.942171
0.000675087
0.941577
1
0.850779
0.695119
0.000101102
0.000155286
1
1
1
9.1417e-05
0.000514009
0.999999
0.000536491
0.00324612
1
0.00229385
0.000675384
0.279816
0.00690951
0.471466
0.372447
0.880293
1
0.00682699
1
1
0.000576331
)
;

boundaryField
{
    patch0
    {
        type            zeroGradient;
    }
}


// ************************************************************************* //
