/*--------------------------------*- C++ -*----------------------------------*\
  =========                 |
  \\      /  F ield         | OpenFOAM: The Open Source CFD Toolbox
   \\    /   O peration     | Website:  https://openfoam.org
    \\  /    A nd           | Version:  8
     \\/     M anipulation  |
\*---------------------------------------------------------------------------*/
FoamFile
{
    version     2.0;
    format      ascii;
    class       volScalarField;
    location    "0.8";
    object      epsilon;
}
// * * * * * * * * * * * * * * * * * * * * * * * * * * * * * * * * * * * * * //

dimensions      [0 2 -3 0 0 0 0];

internalField   nonuniform List<scalar> 
1924
(
0.0228531
0.0400235
0.091531
0.0935596
0.0365336
0.0946146
0.0927783
0.0936052
0.0892013
0.0905994
0.0900054
0.0866418
0.0340308
0.0879713
0.0938993
0.0948242
0.037063
0.0856263
0.0198026
0.0868269
0.0185468
0.0496122
0.037179
0.0851239
0.049346
0.0461904
0.0458832
0.0816118
0.0564023
0.0877804
0.0393766
0.0485992
0.0171269
0.037552
0.0812446
0.0393309
0.0458849
0.068883
0.0857972
0.0394043
0.0448508
0.0217069
0.0468708
0.0335979
0.087255
0.0411339
0.0280117
0.0923292
0.00685186
0.0101695
0.018556
0.0309294
0.0498706
0.0143522
0.0278959
0.0904113
0.0197044
0.0878909
0.0845657
0.059191
0.0304754
0.0970824
0.0275523
0.0927998
0.0132879
0.0929245
0.0869709
0.0433103
0.0549417
0.0205476
0.0260033
0.0957307
0.0902936
0.0849234
0.0823588
0.0333508
0.0904253
0.0815747
0.0926329
0.0252492
0.0677417
0.0510622
0.0865832
0.0212069
0.0170458
0.0446424
0.0850016
0.0943614
0.00723879
0.0263424
0.0888122
0.0501537
0.0310945
0.0387164
0.0290633
0.0100046
0.0911227
0.071239
0.0604743
0.0326778
0.0876602
0.0292959
0.0620053
0.0553298
0.0385711
0.078675
0.0796687
0.0350264
0.057292
0.0428358
0.0895407
0.0636674
0.0700473
0.092006
0.0898845
0.017699
0.0919195
0.0919287
0.0494665
0.0881972
0.0124649
0.0148334
0.0130908
0.0199192
0.092779
0.0460797
0.0354493
0.0801539
0.0617099
0.0313791
0.0858087
0.0876923
0.199634
0.0927517
0.0320491
0.0540757
0.0759247
0.0753307
0.0862605
0.0801947
0.0916086
0.0973595
0.177826
0.0887695
0.0935943
0.0164003
0.0353795
0.0333253
0.0556189
0.0481249
0.0833152
0.028786
0.0363228
0.0898648
0.0953544
0.0450415
0.0152597
0.0842837
0.085444
0.637337
0.0916443
0.0324112
0.0940913
0.0153019
0.0679464
0.05355
0.0585953
0.0194121
0.0856851
0.0649916
0.0276685
0.0959292
0.0765169
0.0552357
0.092125
0.040983
0.0906244
0.0936069
0.0346198
0.0952902
0.0435482
0.0898215
0.0842114
0.0579142
0.0054121
0.0613755
0.0371571
0.0499836
0.0846498
0.0892398
0.0366164
0.0944824
0.0829669
0.0967079
0.0715262
0.0302653
0.0574345
0.0424482
0.0397077
0.043663
0.0405869
0.0577878
0.0682617
0.0946962
0.0310451
0.0422417
0.0974084
0.0384267
0.0357312
0.227642
0.0163397
0.0789531
0.0887821
0.0709016
0.0483891
0.0806083
0.0534396
0.0389957
0.0957381
0.0787607
0.0401914
0.0871738
0.0679031
0.0897771
0.0911927
0.0557082
0.0825509
0.071931
0.0813318
0.0445758
0.121351
0.0742277
0.0408731
0.134174
0.0642568
0.842008
0.0870949
0.0966795
0.0824965
0.0320033
0.0831348
0.042267
0.0857528
0.0392582
0.46123
0.0360539
0.0923216
0.0921331
0.0825892
0.0743706
0.0673172
0.0205458
0.0808697
0.0788518
0.0831088
0.0898743
0.0492115
0.044908
0.0388201
0.0936335
0.0499096
0.0822511
0.0546175
0.081776
0.0486503
0.0805215
0.020036
0.0751254
0.0317686
0.0698468
0.0455079
0.0828798
0.0302431
0.0420602
0.0727249
0.0658087
0.0896256
0.0625993
0.0889853
0.0429696
0.0291984
0.0462145
0.0828665
0.0877427
0.0126011
0.0862444
0.0796544
0.0257506
0.0947899
0.0426129
0.0908352
0.0839726
0.0696483
0.0865748
0.0113164
0.0678917
0.0913891
0.0408623
0.0770395
0.0882226
0.0463852
0.0891236
0.0806931
0.0521414
0.0909187
0.0436943
0.0218608
0.0801559
0.0460135
0.0893304
0.0381694
0.0430007
0.0874378
0.0511588
0.0812491
0.0270614
0.048666
0.0928081
0.0908099
0.0607646
0.08178
0.0461548
0.0946309
0.0807673
0.0470637
0.0671881
0.044196
0.0424168
0.0925627
0.0798284
0.0442212
0.0843696
0.0512975
0.0888732
0.0776951
0.067925
0.0656067
0.0952766
0.0917252
0.0949953
0.0691469
0.0904917
0.0504557
0.042062
0.0907479
0.0935996
0.124557
0.0897944
0.0413115
0.0427171
0.0477697
0.430478
0.284068
0.0826593
0.0387198
0.0706854
0.00527741
0.0940294
0.0476269
0.0103173
0.0726196
0.0869565
0.0804816
0.0704512
0.0481177
0.0974123
0.0508835
0.0478323
0.0915381
0.0954146
0.0717329
0.0595045
0.0463274
0.0811891
0.0498542
0.0594844
0.0885329
0.0923477
0.049435
0.0879031
0.0879876
0.0729714
0.0431517
0.0704595
0.0456431
0.070491
0.0790261
0.0702768
0.0496742
0.0979051
0.365917
0.0511205
0.0479105
0.0816506
0.0976509
0.281687
0.0485411
0.050005
0.0771536
0.0904563
0.0190079
0.0744003
0.0431503
0.0340365
0.0388824
0.0636301
0.066013
0.0792529
0.0474294
0.0482187
0.0707786
0.0512576
0.0933326
0.0977556
0.0939178
0.0510837
0.0644824
0.0829425
0.0471863
0.0908568
0.0813677
0.0483459
0.0654807
0.0402105
0.0484252
0.075542
0.0793012
0.0846915
0.0506136
0.0534208
0.0636236
0.0653911
0.0542925
0.0508913
0.097898
0.0510627
0.0734053
0.0160836
0.0985109
0.0489076
0.0463266
0.0489047
0.0692495
0.0340155
0.0814054
0.999722
0.0734218
0.0761335
0.0466151
0.067722
0.0892114
0.050772
0.0776737
0.0776624
0.0482565
0.0530884
0.0672529
0.0859922
0.0499446
0.0846351
0.0666273
0.0500133
0.0299372
0.047446
0.0441464
0.0661939
0.0738109
0.0937113
0.0968528
0.0932537
0.0476611
0.0509436
0.0798533
0.0661389
0.0495854
0.0686165
0.0885064
0.0944662
0.0794218
0.0847707
0.0712356
0.0982099
0.0593961
0.0718993
0.050164
0.0479399
0.0497757
0.0681565
0.0530509
0.0770238
0.0200302
0.0519452
0.0509005
0.0914308
0.0761747
0.063903
0.0768087
0.0614367
0.0484956
0.0803772
0.0750789
0.0873853
0.0483082
0.0492983
0.040791
0.0507592
0.0799718
0.0473044
0.0500468
0.0698007
0.0709588
0.0637879
0.0604629
0.0766331
0.0634525
0.0618305
0.0495988
0.0516087
0.0976844
0.0817181
0.0492463
0.0813408
0.0637508
0.0686602
0.0826576
0.0577103
0.0772113
0.0303366
0.0471514
0.0948975
0.0462143
0.0946741
0.0500333
0.0416967
0.0449846
0.066667
0.0985033
0.0499393
0.0335576
0.0484214
0.0497106
0.0852605
0.0242347
0.0727371
0.0645898
0.0505337
0.0836117
0.0936981
0.0726325
0.0750708
0.0492386
0.0572871
0.0823777
0.0502221
0.047518
0.0436876
0.0320958
0.0175581
0.0618377
0.0873693
0.0488779
0.0473032
0.0347966
0.0568179
0.0485182
0.0475816
0.0650922
0.0870579
0.0815504
0.0493638
0.0640653
0.0517074
0.0469595
0.0583335
0.0749278
0.0590868
0.0350466
0.0418772
0.069788
0.0478181
0.0494107
0.0726988
0.0965934
0.0568331
0.013119
0.0274348
0.0729103
0.0392564
0.0624976
0.0898698
0.0473607
0.0490455
0.0523036
0.0153701
0.0208189
0.0694044
0.0577183
0.0771289
0.0649826
0.0444435
0.010821
0.0737982
0.0944492
0.0923437
0.0490805
0.0953047
0.0559458
0.0674774
0.0482405
0.0398185
0.0478798
0.080017
0.036375
0.0746805
0.0494362
0.0707515
0.0816938
0.0459196
0.0125198
0.0863993
0.0657363
0.062943
0.087594
0.0488191
0.0986247
0.0786553
0.0309234
0.0680087
0.0604839
0.0394981
0.0738667
0.0484552
0.0745103
0.041436
0.049253
0.0115329
0.0478028
0.040732
0.0496247
0.0651993
0.0534879
0.0551125
0.0488432
0.0469142
0.0502661
0.0747674
0.0490258
0.0652526
0.0505747
0.0498765
0.0467681
0.0545787
0.0845974
0.085727
0.032406
0.055322
0.0444324
0.0694101
0.0471575
0.0436157
0.0492125
0.0250221
0.0760432
0.0623591
0.0545021
0.0911621
0.0481851
0.0702975
0.0480681
0.048638
0.0491422
0.0643829
0.0217399
0.0734558
0.0757145
0.062316
0.097526
0.0715926
0.0182339
0.0345422
0.0666869
0.0668135
0.064319
0.0604484
0.0483606
0.098851
0.0555963
0.0190238
0.0651144
0.0275724
0.0931036
0.0936912
0.0840525
0.04752
0.0454646
0.0684244
0.0357792
0.0726927
0.0489882
0.0487849
0.0623252
0.0414924
0.0483627
0.0421497
0.0145749
0.0489556
0.0524956
0.0473112
0.0650741
0.0482864
0.0470108
0.0197374
0.0528481
0.0193306
0.0475465
0.0590601
0.053655
0.0440007
0.0692988
0.00945848
0.0739447
0.0634913
0.0661247
0.0316177
0.0713615
0.0344119
0.135581
0.0127901
0.0463001
0.0626815
0.0534061
0.0404356
0.0744696
0.049099
0.0588894
0.0478061
0.054768
0.049932
0.062713
0.04238
0.0148632
0.0537218
0.0633574
0.0352377
0.084895
0.115037
0.0484114
0.0328869
0.0479798
0.06247
0.0481565
0.0495552
0.0972772
0.075734
0.0766966
0.0846155
0.0862511
0.0133725
0.0191687
0.0603979
0.0824196
0.0534141
0.0561589
0.0612701
0.048322
0.0357528
0.0474193
0.0488643
0.0263362
0.0480886
0.0632602
0.0478503
0.063223
0.0523402
0.0431727
0.0621763
0.0483684
0.0475239
0.028026
0.0515685
0.0407097
0.0702172
0.0989026
0.0351009
0.0877538
0.0800664
0.0685981
0.0489147
0.0632785
0.0839178
0.037337
0.0456806
0.0628488
0.0524488
0.0492929
0.0617211
0.0624553
0.00886965
0.049452
0.0468501
0.0268472
0.047513
0.0478337
0.0888785
0.0674768
0.0648329
0.0919743
0.0611187
0.0529419
0.0486953
0.078358
0.0620285
0.073216
0.0419071
0.0477382
0.0325189
0.0590707
0.0189635
0.0478817
0.0506105
0.0429415
0.086501
0.0612703
0.0209849
0.0534901
0.0620354
0.0493301
0.055548
0.0527032
0.0354775
0.0607664
0.0650808
0.0484375
0.0478317
0.0485105
0.0477697
0.0718153
0.0540521
0.0607878
0.0413772
0.0821938
0.0424148
0.048375
0.0476504
0.00569771
0.0450777
0.0486564
0.0490418
0.0574859
0.0467938
0.097929
0.0527177
0.0282255
0.0692793
0.0609436
0.0510529
0.043842
0.0489249
0.0152353
0.077414
0.0545883
0.0615954
0.051411
0.0838467
0.0413941
0.0517172
0.0160074
0.0477251
0.0303605
0.0377908
0.0609531
0.0476829
0.0404257
0.0981913
0.0492994
0.0853289
0.0664991
0.0399636
0.0135891
0.049561
0.0914987
0.0482529
0.0571218
0.0814756
0.0486641
0.048082
0.0513483
0.0834442
0.0523774
0.0531069
0.0500443
0.0633127
0.0245002
0.055388
0.0592496
0.0593092
0.0597481
0.0568076
0.042104
0.0579131
0.0359095
0.0792094
0.0487826
0.0140519
0.0478302
0.0483727
0.0584606
0.021831
0.0482511
0.0586445
0.0481467
0.0879219
0.0600537
0.0495222
0.0150555
0.051898
0.0243417
0.0478427
0.0491828
0.0764301
0.077965
0.0585951
0.0498414
0.0207358
0.0601375
0.0378002
0.0642608
0.0850693
0.0974208
0.0486468
0.0497645
0.0561196
0.0479897
0.0467262
0.050082
0.0430217
0.0529067
0.0484386
0.0490492
0.0511953
0.0752263
0.0396521
0.060272
0.0120243
0.0451349
0.050095
0.0505095
0.0499293
0.0314945
0.0555983
0.0430641
0.0483136
0.366806
0.0489443
0.0525777
0.0429497
0.041056
0.0827554
0.0345958
0.0542645
0.0274922
0.0619744
0.0492041
0.091618
0.0171751
0.049802
0.0553749
0.0493001
0.048132
0.0194728
0.07373
0.0495104
0.0770094
0.0481122
0.0564139
0.0905649
0.0469449
0.0481146
0.0515988
0.0361503
0.0556806
0.0482657
0.0414462
0.0497875
0.0480752
0.0507479
0.0502983
0.0495868
0.091886
0.0479964
0.0506022
0.0488774
0.0627283
0.0503964
0.0491975
0.0759749
0.0456575
0.0522177
0.052028
0.0389685
0.04845
0.0258744
0.0439666
0.0527784
0.0493683
0.0441727
0.0546106
0.0809547
0.0574643
0.0331737
0.0512655
0.0285273
0.054091
0.0482636
0.0577069
0.0587094
0.0484435
0.0482354
0.0494824
0.049475
0.0568361
0.0544665
0.0568372
0.0303603
0.0746149
0.0721093
0.0477488
0.0497338
0.0493969
0.0924991
0.0919397
0.0179578
0.0416686
0.0589943
0.0513008
0.0168339
0.0185301
0.0502193
0.0833505
0.0717819
0.0503966
0.0399119
0.0548289
0.092847
0.0501553
0.0537943
0.0482675
0.0610385
0.0479819
0.0480506
0.0472892
0.0510743
0.0551706
0.0358483
0.0515988
0.0695989
0.0899272
0.0486285
0.0550977
0.0482978
0.0491103
0.0474988
0.0400512
0.0495187
0.0924289
0.0382509
0.0730259
0.0543177
0.0498788
0.0616135
0.0215228
0.0538114
0.0244305
0.0520043
0.0494434
0.0476008
0.0467841
0.0529736
0.0517338
0.0495474
0.0509332
0.329733
0.0460815
0.0499089
0.00878109
0.0371601
0.0483209
0.0707354
0.0469957
0.053778
0.046177
0.050579
0.0509992
0.321079
0.337991
0.0521553
0.0459761
0.0543201
0.0717553
0.0459814
0.0305925
0.0494571
0.0514421
0.041915
0.31274
0.0482153
0.00837249
0.0381968
0.0475756
0.0502785
0.0486376
0.0332849
0.0492704
0.0677519
0.076086
0.090902
0.0392812
0.0525756
0.0561065
0.0492588
0.0501102
0.0472846
0.0374802
0.0523589
0.0561975
0.0572407
0.0370143
0.0451991
0.04919
0.31071
0.0716311
0.0511182
0.0481328
0.0537345
0.0495245
0.0489285
0.051433
0.057547
0.0603451
0.0222512
0.0501114
0.0518523
0.0744487
0.020051
0.035543
0.0523913
0.300693
0.0530271
0.0508954
0.345542
0.0139544
0.0451337
0.0609037
0.0536824
0.0502917
0.0544122
0.055316
0.0381026
0.0467782
0.0302702
0.0451219
0.0463718
0.0736165
0.296783
0.0531838
0.0311863
0.0260762
0.0449423
0.0697703
0.0518207
0.0552199
0.0467717
0.0390674
0.0282576
0.0924219
0.0502048
0.0444901
0.0563606
0.0902391
0.0491991
0.0479908
0.035691
0.0527126
0.0438652
0.0450322
0.0476466
0.0627757
0.0532603
0.0478267
0.0500974
0.29305
0.0478713
0.0484669
0.0686213
0.352949
0.0512075
0.0169194
0.0514567
0.0478888
0.0334006
0.0469158
0.0540204
0.0445659
0.0466042
0.0455818
0.0482855
0.0539491
0.0193014
0.0705519
0.05045
0.0487597
0.0547716
0.0340312
0.0524586
0.0393291
0.0199217
0.0521672
0.0528141
0.0564895
0.0289011
0.0434397
0.04678
0.0540656
0.0494116
0.0251806
0.0538754
0.0358036
0.0327518
0.00946723
0.28937
0.0567298
0.054102
0.0461514
0.0555368
0.0508878
0.0503972
0.0517755
0.0451501
0.0470396
0.0456013
0.0548184
0.0501565
0.0459654
0.0244543
0.0228227
0.0531977
0.0502648
0.0442219
0.0468146
0.0694994
0.0445362
0.0470961
0.0502407
0.0472831
0.0514207
0.352221
0.0600764
0.0163694
0.0356995
0.0443127
0.0506099
0.0476794
0.0798814
0.0162233
0.0537234
0.0309444
0.0345821
0.0482672
0.0439742
0.0554675
0.0498294
0.0605996
0.028762
0.030744
0.0703845
0.0545483
0.0529425
0.0510396
0.0387929
0.0306646
0.00772538
0.0525187
0.0545587
0.0661044
0.0506616
0.285916
0.0480525
0.0532933
0.0461814
0.0548536
0.0570214
0.0490882
0.052231
0.0173154
0.0473026
0.030913
0.0541389
0.0528784
0.0449272
0.0511262
0.669972
0.0471649
0.054902
0.0163242
0.0546222
0.0599017
0.070972
0.0539434
0.653356
0.0400314
0.0548118
0.0801175
0.635225
0.00839282
0.0544901
0.0564884
0.088727
0.0280769
0.0563344
0.0474095
0.0299295
0.0547432
0.0618911
0.0593372
0.0500419
0.0443273
0.686127
0.0558096
0.0562537
0.0294757
0.0533681
0.0545008
0.0329637
0.044335
0.0458216
0.0346423
0.0601511
0.0339282
0.0541203
0.620874
0.610772
0.021034
0.0380792
0.0656078
0.0804055
0.0459246
0.0615538
0.0395267
0.055967
0.0519903
0.0548713
0.0552091
0.028162
0.59939
0.0664508
0.0563146
0.283275
0.0255717
0.0396136
0.0248039
0.0182418
0.0665655
0.0234411
0.054534
0.0546427
0.0504193
0.0633737
0.0541708
0.0475174
0.0577671
0.045035
0.704311
0.700079
0.053781
0.0559648
0.0157182
0.591518
0.0493366
0.0261198
0.0552438
0.115279
0.0265717
0.115897
0.0531902
0.0622523
0.0180366
0.0128943
0.116169
0.0552513
0.0356563
0.0631671
0.0556882
0.26833
0.115058
0.0666681
0.115427
0.0607164
0.0167647
0.113812
0.0509618
0.0109805
0.0664057
0.0651081
0.0468659
0.583914
0.115664
0.0464202
0.0294709
0.0570923
0.0473639
0.0638322
0.0552625
0.0618268
0.0522429
0.050338
0.0455448
0.104493
0.0625748
0.0159314
0.0640531
0.0603761
0.044737
0.0306319
0.0409375
0.104327
0.0150921
0.12194
0.0551715
0.0555281
0.0470917
0.0521315
0.0644221
0.0251446
0.0667247
0.0561386
0.5769
0.0609982
0.0583215
0.0248477
0.228284
0.0709819
0.0667464
0.0618575
0.0577529
0.051011
0.0880243
0.0460229
0.0538432
0.0757496
0.0632864
0.0552758
0.282637
0.0648223
0.0565444
0.0557212
0.128887
0.062549
0.0487169
0.0549546
0.0678638
0.04559
0.0513376
0.0635616
0.0543538
0.648914
0.0466723
0.0715094
0.0497074
0.0553717
0.0465192
0.0621287
0.0153989
0.0562226
0.0127263
0.0552237
0.0245215
0.0644906
0.0464934
0.22903
0.226553
0.570155
0.0563539
0.0361198
0.0466351
0.0660356
0.0127139
0.0547998
0.114425
0.0103242
0.049683
0.0563249
0.0555122
0.0144506
0.0614387
0.0605616
0.0621147
0.0608329
0.0227791
0.0484858
0.0481804
0.0663931
0.0469437
0.0560753
0.0242718
0.0714067
0.13536
0.0523539
0.0489954
0.0717364
0.052674
0.0112357
0.165502
0.0627079
0.0270745
0.187538
0.058003
0.197496
0.0505951
0.0605671
0.202996
0.062651
0.230555
0.20551
0.0484087
0.0713466
0.0595696
0.209103
0.209577
0.0539789
0.0511049
0.0501177
0.0598725
0.052718
0.0483747
0.0624949
0.0260323
0.0275767
0.028481
0.218621
0.0565632
0.0653772
0.055726
0.234536
0.0485756
0.0302036
0.230621
0.0514248
0.0541201
0.232678
0.0602017
0.0280569
0.0100192
0.231805
0.236942
0.0599892
0.108069
0.0722002
0.0494327
0.0531944
0.0617043
0.0526283
0.144843
0.130037
0.0654057
0.0575067
0.119975
0.0576797
0.12725
0.0505238
0.051654
0.0427081
0.451462
0.45173
0.23542
0.0285378
0.0722353
0.057908
0.0551437
0.0559018
0.0557459
0.0706414
0.0561066
0.0564169
0.0506158
0.113475
0.0567703
0.0693964
0.0567012
0.0574405
0.0568257
0.245677
0.0567013
0.0221945
0.0995854
0.0204239
0.0610406
0.0514273
0.0526516
0.0600796
0.456391
0.0607352
0.0344317
0.0512248
0.278251
0.0543817
0.05927
0.06265
0.0549509
0.056702
0.0587965
0.240199
0.0567361
0.567902
0.562326
0.0720179
0.10981
0.0639721
0.274451
0.0511667
0.0558345
0.0541176
0.0620518
0.0622198
0.0641579
0.00939678
0.0574172
0.252082
0.109663
0.050975
0.471716
0.0972724
0.0596898
0.0597796
0.0606439
0.458334
0.053399
0.465363
0.239627
0.05975
0.0559717
0.462677
0.270353
0.0560491
0.466993
0.0555947
0.056992
0.0285566
0.0522784
0.0635981
0.0535563
0.275144
0.055517
0.0573467
0.100881
0.0934518
0.0609272
0.00873372
0.0647227
0.0592048
0.0624892
0.0575294
0.0581283
0.0615852
0.47764
0.0621248
0.0640419
0.0546718
0.05767
0.0525465
0.0698122
0.0237563
0.0262452
0.0561622
0.0567473
0.0693353
0.0218119
0.042395
0.230224
0.475461
0.0646779
0.0659496
0.227397
0.0607347
0.129481
0.244099
0.0568804
0.0539728
0.0533194
0.056589
0.54977
0.547071
0.0528602
0.265801
0.231314
0.221789
0.0558723
0.0230639
0.0533117
0.0642881
0.0571379
0.0172292
0.0203588
0.0639671
0.056525
0.0637244
0.244457
0.485352
0.0652683
0.059221
0.063171
0.063611
0.0557999
0.0689232
0.0601812
0.216698
0.536565
0.0566029
0.276509
0.0543891
0.460342
0.0695989
0.462179
0.237001
0.478559
0.0636073
0.552047
0.0656647
0.262841
0.0551647
0.0651626
0.45111
0.213217
0.0549637
0.156062
0.168733
0.310799
0.0675689
0.0911901
0.0688839
0.439065
0.0558367
0.065173
0.0690488
0.528828
0.505759
0.249532
0.254924
0.233483
0.260714
0.465273
0.430154
0.0685189
0.0696838
0.0658415
0.0568682
0.523555
0.424099
0.210347
0.0553242
0.0697318
0.0694744
0.0572764
0.0668796
0.0661206
0.0564649
0.51759
0.260509
0.0553227
0.555656
0.26324
0.524949
0.262619
0.0695552
0.069549
0.0140182
0.0078732
0.191312
0.00760815
0.254368
0.0217868
0.368341
0.197281
0.471004
0.183183
0.337643
0.285112
0.20444
0.396297
0.258803
0.142948
0.262637
0.527348
0.49491
0.527037
0.26347
0.52427
0.259717
0.517734
0.415666
0.417717
0.20934
0.417918
0.411482
0.207301
0.516402
0.0693557
0.0852185
0.0698158
0.0683294
0.0694099
0.0495324
0.0862197
0.0208759
0.015408
0.0183016
0.0724542
0.0200909
0.0509953
0.00828032
0.0206759
0.047048
0.0187594
0.0845831
0.0204434
0.050667
0.0624673
0.0539367
0.0511889
0.00527068
0.022358
0.0504508
0.0595678
0.0138671
0.0437902
0.0221516
0.0561961
0.0529413
0.0379823
0.0230851
0.0586918
0.0221763
0.0284782
0.0256064
0.0293943
0.0473098
0.0191163
0.0228099
0.0105817
0.0120682
0.0559679
0.0446549
0.0511196
0.0234771
0.0508753
0.0462124
0.0203668
0.0215963
0.0647454
0.0160114
0.0828809
0.00944137
0.00510995
0.016857
0.0186989
0.0238074
0.01467
0.0251346
0.0173715
0.0164394
0.0156923
0.0145201
0.0163606
0.0259035
0.0454924
0.00608413
0.0818182
0.0266342
0.0153193
0.0290829
0.00556419
0.0122781
0.0166501
0.0467215
0.00600988
0.0161903
0.0138876
0.013884
0.0117505
0.00729091
0.00768771
0.0132979
0.0688684
0.0101075
0.0474077
0.0579027
0.00630504
0.081245
0.00574695
0.0266363
0.0178497
0.0193934
0.048167
0.0853225
0.0048017
0.00726802
0.0186287
0.0491641
0.071039
0.00793579
0.0709885
0.0489756
0.0155523
0.0500159
0.0746997
0.0134894
0.0507016
0.0140525
0.0102971
0.00888124
0.0225987
0.0499343
0.0168741
0.0281953
0.0831313
)
;

boundaryField
{
    patch0
    {
        type            epsilonWallFunction;
        value           nonuniform List<scalar> 
4010
(
0.0228531
0.0228531
0.0400235
0.0400235
0.091531
0.091531
0.0935596
0.0935596
0.0365336
0.0365336
0.0946146
0.0946146
0.0927783
0.0927783
0.0936052
0.0936052
0.0892013
0.0892013
0.0905994
0.0905994
0.0900054
0.0900054
0.0866418
0.0866418
0.0340308
0.0340308
0.0879713
0.0879713
0.0938993
0.0938993
0.0948242
0.0948242
0.037063
0.037063
0.0856263
0.0856263
0.0198026
0.0198026
0.0868269
0.0868269
0.0185468
0.0185468
0.0496122
0.0496122
0.037179
0.037179
0.0851239
0.0851239
0.049346
0.049346
0.0461904
0.0461904
0.0458832
0.0458832
0.0816118
0.0816118
0.0564023
0.0564023
0.0877804
0.0877804
0.0393766
0.0393766
0.0485992
0.0485992
0.0171269
0.0171269
0.037552
0.037552
0.0812446
0.0812446
0.0393309
0.0393309
0.0458849
0.0458849
0.068883
0.068883
0.0857972
0.0857972
0.0394043
0.0394043
0.0448508
0.0448508
0.0217069
0.0217069
0.0468708
0.0468708
0.0335979
0.0335979
0.087255
0.087255
0.0411339
0.0411339
0.0280117
0.0280117
0.0923292
0.0923292
0.00685186
0.00685186
0.0101695
0.0101695
0.018556
0.018556
0.0309294
0.0309294
0.0498706
0.0498706
0.0143522
0.0143522
0.0278959
0.0278959
0.0904113
0.0904113
0.0197044
0.0197044
0.0878909
0.0878909
0.0845657
0.0845657
0.059191
0.059191
0.0304754
0.0304754
0.0970824
0.0970824
0.0275523
0.0275523
0.0927998
0.0927998
0.0132879
0.0132879
0.0929245
0.0929245
0.0869709
0.0869709
0.0433103
0.0433103
0.0549417
0.0549417
0.0205476
0.0205476
0.0260033
0.0260033
0.0957307
0.0957307
0.0902936
0.0902936
0.0849234
0.0849234
0.0823588
0.0823588
0.0333508
0.0333508
0.0904253
0.0904253
0.0815747
0.0815747
0.0926329
0.0926329
0.0252492
0.0252492
0.0677417
0.0677417
0.0510622
0.0510622
0.0865832
0.0865832
0.0212069
0.0212069
0.0170458
0.0170458
0.0446424
0.0446424
0.0850016
0.0850016
0.0943614
0.0943614
0.00723879
0.00723879
0.0263424
0.0263424
0.0888122
0.0888122
0.0501537
0.0501537
0.0310945
0.0310945
0.0387164
0.0387164
0.0290633
0.0290633
0.0100046
0.0100046
0.0911227
0.0911227
0.071239
0.071239
0.0604743
0.0604743
0.0326778
0.0326778
0.0876602
0.0876602
0.0292959
0.0292959
0.0620053
0.0620053
0.0553298
0.0553298
0.0385711
0.0385711
0.078675
0.078675
0.0796687
0.0796687
0.0350264
0.0350264
0.057292
0.057292
0.0428358
0.0428358
0.0895407
0.0895407
0.0636674
0.0636674
0.0700473
0.0700473
0.092006
0.092006
0.0898845
0.0898845
0.017699
0.017699
0.0919195
0.0919195
0.0919287
0.0919287
0.0494665
0.0494665
0.0881972
0.0881972
0.0124649
0.0124649
0.0148334
0.0148334
0.0130908
0.0130908
0.0199192
0.0199192
0.092779
0.092779
0.0460797
0.0460797
0.0354493
0.0354493
0.0801539
0.0801539
0.0617099
0.0617099
0.0313791
0.0313791
0.0858087
0.0858087
0.0876923
0.0876923
0.199634
0.199634
0.0927517
0.0927517
0.0320491
0.0320491
0.0540757
0.0540757
0.0759247
0.0759247
0.0753307
0.0753307
0.0862605
0.0862605
0.0801947
0.0801947
0.0916086
0.0916086
0.0973595
0.0973595
0.177826
0.177826
0.177826
0.0887695
0.0887695
0.0887695
0.0935943
0.0935943
0.0164003
0.0164003
0.0353795
0.0353795
0.0333253
0.0333253
0.0556189
0.0556189
0.0481249
0.0481249
0.0833152
0.0833152
0.028786
0.028786
0.028786
0.0363228
0.0363228
0.0898648
0.0898648
0.0953544
0.0953544
0.0450415
0.0450415
0.0152597
0.0152597
0.0842837
0.0842837
0.085444
0.085444
0.637337
0.637337
0.0916443
0.0916443
0.0324112
0.0324112
0.0940913
0.0940913
0.0153019
0.0153019
0.0679464
0.0679464
0.05355
0.05355
0.0585953
0.0585953
0.0194121
0.0194121
0.0856851
0.0856851
0.0649916
0.0649916
0.0276685
0.0276685
0.0959292
0.0959292
0.0765169
0.0765169
0.0552357
0.0552357
0.092125
0.092125
0.040983
0.040983
0.0906244
0.0906244
0.0936069
0.0936069
0.0346198
0.0346198
0.0952902
0.0952902
0.0435482
0.0435482
0.0898215
0.0898215
0.0842114
0.0842114
0.0579142
0.0579142
0.0054121
0.0054121
0.0613755
0.0613755
0.0371571
0.0371571
0.0499836
0.0499836
0.0846498
0.0846498
0.0892398
0.0892398
0.0366164
0.0366164
0.0944824
0.0944824
0.0829669
0.0829669
0.0967079
0.0967079
0.0715262
0.0715262
0.0302653
0.0302653
0.0302653
0.0574345
0.0574345
0.0424482
0.0424482
0.0397077
0.0397077
0.043663
0.043663
0.0405869
0.0405869
0.0577878
0.0577878
0.0682617
0.0682617
0.0946962
0.0946962
0.0310451
0.0310451
0.0422417
0.0422417
0.0974084
0.0974084
0.0384267
0.0384267
0.0357312
0.0357312
0.227642
0.227642
0.227642
0.0163397
0.0163397
0.0789531
0.0789531
0.0887821
0.0887821
0.0709016
0.0709016
0.0483891
0.0483891
0.0806083
0.0806083
0.0534396
0.0534396
0.0389957
0.0389957
0.0957381
0.0957381
0.0787607
0.0787607
0.0401914
0.0401914
0.0871738
0.0871738
0.0679031
0.0679031
0.0897771
0.0897771
0.0911927
0.0911927
0.0557082
0.0557082
0.0825509
0.0825509
0.071931
0.071931
0.0813318
0.0813318
0.0445758
0.0445758
0.121351
0.121351
0.0742277
0.0742277
0.0408731
0.0408731
0.134174
0.134174
0.0642568
0.0642568
0.842008
0.842008
0.842008
0.0870949
0.0870949
0.0966795
0.0966795
0.0824965
0.0824965
0.0320033
0.0320033
0.0320033
0.0831348
0.0831348
0.042267
0.042267
0.0857528
0.0857528
0.0392582
0.0392582
0.46123
0.46123
0.0360539
0.0360539
0.0923216
0.0923216
0.0921331
0.0921331
0.0825892
0.0825892
0.0743706
0.0743706
0.0673172
0.0673172
0.0205458
0.0205458
0.0808697
0.0808697
0.0788518
0.0788518
0.0831088
0.0831088
0.0898743
0.0898743
0.0492115
0.0492115
0.044908
0.044908
0.0388201
0.0388201
0.0936335
0.0936335
0.0499096
0.0499096
0.0822511
0.0822511
0.0546175
0.0546175
0.081776
0.081776
0.0486503
0.0486503
0.0805215
0.0805215
0.020036
0.020036
0.0751254
0.0751254
0.0317686
0.0317686
0.0698468
0.0698468
0.0455079
0.0455079
0.0828798
0.0828798
0.0302431
0.0302431
0.0420602
0.0420602
0.0727249
0.0727249
0.0658087
0.0658087
0.0896256
0.0896256
0.0625993
0.0625993
0.0889853
0.0889853
0.0429696
0.0429696
0.0291984
0.0291984
0.0462145
0.0462145
0.0462145
0.0828665
0.0828665
0.0877427
0.0877427
0.0126011
0.0126011
0.0862444
0.0862444
0.0796544
0.0796544
0.0257506
0.0257506
0.0947899
0.0947899
0.0426129
0.0426129
0.0908352
0.0908352
0.0839726
0.0839726
0.0696483
0.0696483
0.0865748
0.0865748
0.0113164
0.0113164
0.0678917
0.0678917
0.0913891
0.0913891
0.0408623
0.0408623
0.0770395
0.0770395
0.0882226
0.0882226
0.0463852
0.0463852
0.0463852
0.0891236
0.0891236
0.0806931
0.0806931
0.0521414
0.0521414
0.0909187
0.0909187
0.0436943
0.0436943
0.0218608
0.0218608
0.0801559
0.0801559
0.0460135
0.0460135
0.0893304
0.0893304
0.0381694
0.0381694
0.0430007
0.0430007
0.0874378
0.0874378
0.0511588
0.0511588
0.0812491
0.0812491
0.0270614
0.0270614
0.048666
0.048666
0.0928081
0.0928081
0.0908099
0.0908099
0.0607646
0.0607646
0.08178
0.08178
0.0461548
0.0461548
0.0946309
0.0946309
0.0807673
0.0807673
0.0470637
0.0470637
0.0671881
0.0671881
0.044196
0.044196
0.0424168
0.0424168
0.0925627
0.0925627
0.0798284
0.0798284
0.0442212
0.0442212
0.0843696
0.0843696
0.0512975
0.0512975
0.0888732
0.0888732
0.0776951
0.0776951
0.067925
0.067925
0.0656067
0.0656067
0.0952766
0.0952766
0.0917252
0.0917252
0.0949953
0.0949953
0.0691469
0.0691469
0.0904917
0.0904917
0.0504557
0.0504557
0.042062
0.042062
0.0907479
0.0907479
0.0935996
0.0935996
0.124557
0.124557
0.0897944
0.0897944
0.0413115
0.0413115
0.0427171
0.0427171
0.0477697
0.0477697
0.430478
0.430478
0.284068
0.284068
0.0826593
0.0826593
0.0387198
0.0387198
0.0706854
0.0706854
0.00527741
0.00527741
0.0940294
0.0940294
0.0476269
0.0476269
0.0103173
0.0103173
0.0726196
0.0726196
0.0869565
0.0869565
0.0804816
0.0804816
0.0704512
0.0704512
0.0481177
0.0481177
0.0974123
0.0974123
0.0508835
0.0508835
0.0478323
0.0478323
0.0915381
0.0915381
0.0954146
0.0954146
0.0717329
0.0717329
0.0595045
0.0595045
0.0463274
0.0463274
0.0811891
0.0811891
0.0498542
0.0498542
0.0594844
0.0594844
0.0885329
0.0885329
0.0923477
0.0923477
0.049435
0.049435
0.0879031
0.0879031
0.0879876
0.0879876
0.0729714
0.0729714
0.0431517
0.0431517
0.0704595
0.0704595
0.0456431
0.0456431
0.070491
0.070491
0.0790261
0.0790261
0.0702768
0.0702768
0.0496742
0.0496742
0.0979051
0.0979051
0.365917
0.365917
0.0511205
0.0511205
0.0479105
0.0479105
0.0816506
0.0816506
0.0976509
0.0976509
0.281687
0.281687
0.281687
0.0485411
0.0485411
0.050005
0.050005
0.0771536
0.0771536
0.0904563
0.0904563
0.0190079
0.0190079
0.0744003
0.0744003
0.0431503
0.0431503
0.0340365
0.0340365
0.0388824
0.0388824
0.0388824
0.0636301
0.0636301
0.066013
0.066013
0.0792529
0.0792529
0.0474294
0.0474294
0.0482187
0.0482187
0.0707786
0.0707786
0.0512576
0.0512576
0.0933326
0.0933326
0.0977556
0.0977556
0.0939178
0.0939178
0.0510837
0.0510837
0.0644824
0.0644824
0.0829425
0.0829425
0.0471863
0.0471863
0.0908568
0.0908568
0.0813677
0.0813677
0.0483459
0.0483459
0.0654807
0.0654807
0.0402105
0.0402105
0.0484252
0.0484252
0.075542
0.075542
0.0793012
0.0793012
0.0846915
0.0846915
0.0506136
0.0506136
0.0534208
0.0534208
0.0636236
0.0636236
0.0653911
0.0653911
0.0542925
0.0542925
0.0508913
0.0508913
0.097898
0.097898
0.0510627
0.0510627
0.0734053
0.0734053
0.0160836
0.0160836
0.0985109
0.0985109
0.0489076
0.0489076
0.0463266
0.0463266
0.0489047
0.0489047
0.0692495
0.0692495
0.0340155
0.0340155
0.0814054
0.0814054
0.999722
0.999722
0.999722
0.0734218
0.0734218
0.0761335
0.0761335
0.0466151
0.0466151
0.067722
0.067722
0.0892114
0.0892114
0.050772
0.050772
0.0776737
0.0776737
0.0776624
0.0776624
0.0482565
0.0482565
0.0530884
0.0530884
0.0672529
0.0672529
0.0859922
0.0859922
0.0499446
0.0499446
0.0846351
0.0846351
0.0666273
0.0666273
0.0500133
0.0500133
0.0299372
0.0299372
0.047446
0.047446
0.0441464
0.0441464
0.0661939
0.0661939
0.0738109
0.0738109
0.0937113
0.0937113
0.0968528
0.0968528
0.0932537
0.0932537
0.0476611
0.0476611
0.0509436
0.0509436
0.0798533
0.0798533
0.0661389
0.0661389
0.0495854
0.0495854
0.0686165
0.0686165
0.0885064
0.0885064
0.0944662
0.0944662
0.0794218
0.0794218
0.0847707
0.0847707
0.0712356
0.0712356
0.0982099
0.0982099
0.0593961
0.0593961
0.0718993
0.0718993
0.050164
0.050164
0.0479399
0.0479399
0.0497757
0.0497757
0.0681565
0.0681565
0.0530509
0.0530509
0.0770238
0.0770238
0.0200302
0.0200302
0.0519452
0.0519452
0.0509005
0.0509005
0.0914308
0.0914308
0.0761747
0.0761747
0.063903
0.063903
0.0768087
0.0768087
0.0614367
0.0614367
0.0484956
0.0484956
0.0803772
0.0803772
0.0750789
0.0750789
0.0873853
0.0873853
0.0483082
0.0483082
0.0492983
0.0492983
0.040791
0.040791
0.0507592
0.0507592
0.0799718
0.0799718
0.0473044
0.0473044
0.0500468
0.0500468
0.0698007
0.0698007
0.0709588
0.0709588
0.0637879
0.0637879
0.0604629
0.0604629
0.0766331
0.0766331
0.0634525
0.0634525