/*--------------------------------*- C++ -*----------------------------------*\
  =========                 |
  \\      /  F ield         | OpenFOAM: The Open Source CFD Toolbox
   \\    /   O peration     | Website:  https://openfoam.org
    \\  /    A nd           | Version:  8
     \\/     M anipulation  |
\*---------------------------------------------------------------------------*/
FoamFile
{
    version     2.0;
    format      ascii;
    class       volScalarField;
    location    "0.8";
    object      k;
}
// * * * * * * * * * * * * * * * * * * * * * * * * * * * * * * * * * * * * * //

dimensions      [0 2 -2 0 0 0 0];

internalField   nonuniform List<scalar> 
1924
(
0.0202045
0.0295334
0.0507691
0.0514479
0.0277353
0.0518416
0.0511473
0.0514595
0.0498008
0.0504446
0.0501004
0.0488048
0.026245
0.049323
0.0516162
0.0520151
0.0277678
0.04841
0.0182994
0.0488796
0.0175099
0.0337039
0.0278393
0.0482401
0.0335818
0.0321517
0.0321031
0.0471095
0.0367993
0.0492418
0.0289093
0.0332361
0.0165865
0.0280129
0.0470076
0.028895
0.0319711
0.0421596
0.0484869
0.0289211
0.0315012
0.0194629
0.0324372
0.02602
0.0490889
0.0298144
0.0230955
0.0509427
0.00900556
0.0117279
0.0175199
0.024644
0.0338249
0.0147613
0.0229907
0.0503727
0.0182317
0.0493344
0.048076
0.0381104
0.0243712
0.0527997
0.0227935
0.0510751
0.014019
0.0511716
0.0493194
0.0308056
0.0361556
0.0187483
0.0219278
0.0524123
0.0501563
0.0481537
0.0472038
0.0258754
0.0502241
0.0468812
0.0510416
0.0215052
0.0413698
0.0345431
0.0488652
0.0191485
0.0165347
0.0314287
0.0482852
0.0517533
0.00934337
0.0221275
0.0499747
0.0340503
0.0247265
0.0286229
0.0236288
0.0115871
0.0504938
0.0426903
0.0386957
0.0255319
0.0493448
0.0237643
0.039387
0.0364101
0.0285676
0.0456557
0.0462965
0.0267667
0.0372476
0.0306115
0.0498946
0.0398529
0.04271
0.0508334
0.0500066
0.0169725
0.050908
0.0510073
0.0336502
0.0493685
0.0134137
0.00793064
0.0138771
0.0183598
0.0513919
0.0322068
0.0269454
0.0463149
0.0390865
0.0124005
0.0484956
0.0493568
0.0203188
0.0511138
0.0252252
0.0358076
0.0448873
0.0446323
0.0486796
0.0466232
0.0507301
0.052988
0.0160291
0.0101186
0.0515015
0.0161042
0.0269621
0.0258676
0.0365003
0.033046
0.0476186
0.00777267
0.0273874
0.0501561
0.0521164
0.0317439
0.00808209
0.0481193
0.048333
0.0440304
0.0506844
0.0253895
0.0516869
0.00809655
0.0416429
0.0356044
0.0378117
0.00788837
0.0484476
0.040463
0.0228503
0.0523244
0.0447898
0.0363135
0.0509433
0.0297098
0.0503021
0.0194023
0.0265323
0.0521215
0.0310461
0.0502295
0.0478787
0.0375433
0.00769115
0.038877
0.0278053
0.034116
0.0480306
0.0497757
0.0275752
0.0517837
0.0473479
0.0526077
0.0431983
0.00803663
0.0374828
0.0304136
0.0291033
0.0309877
0.0106755
0.0374705
0.0418228
0.0518527
0.0247584
0.030424
0.052855
0.0284371
0.0270908
0.0184275
0.00845848
0.0460391
0.0496389
0.0429676
0.0334051
0.0464546
0.0355154
0.0287619
0.0522278
0.0457442
0.0294035
0.0490846
0.0417017
0.0500217
0.0505444
0.0367503
0.0471671
0.0429836
0.047046
0.0314184
0.0182718
0.0444394
0.0296637
0.0226464
0.0403941
0.043996
0.049028
0.0525616
0.0474474
0.00834134
0.0477231
0.0303408
0.0485093
0.0288536
0.0444651
0.0272477
0.0509605
0.0509062
0.0472752
0.0439344
0.0412599
0.00888536
0.0468887
0.0460212
0.047429
0.0500779
0.0335276
0.0315697
0.0287352
0.0514376
0.0339904
0.0473729
0.0360231
0.0469369
0.0332572
0.0464832
0.0184411
0.0442745
0.0250526
0.0153953
0.031855
0.0474541
0.0242216
0.0302627
0.0438367
0.0406536
0.0499447
0.0397209
0.0498387
0.0306586
0.0094039
0.00850062
0.0477997
0.0494643
0.0135131
0.0486568
0.0460124
0.0101587
0.0518577
0.0304875
0.0505604
0.0477979
0.0426151
0.04889
0.0125971
0.0416208
0.0506608
0.0296272
0.045043
0.0494879
0.0103807
0.0499086
0.0466334
0.0349072
0.050429
0.0311115
0.0195374
0.0463938
0.0320918
0.0498785
0.0283118
0.0306672
0.0493638
0.0343991
0.0466442
0.0225126
0.0334672
0.0511216
0.0505658
0.0388024
0.046973
0.0321572
0.0518983
0.046646
0.0327308
0.0411481
0.0313507
0.0303626
0.0510706
0.046084
0.0312497
0.0483631
0.0344638
0.0496554
0.0453506
0.0419422
0.040836
0.0521616
0.0509165
0.0520414
0.0418997
0.0502758
0.0340782
0.0302119
0.0504701
0.0516812
0.0177473
0.0503597
0.0298481
0.0305994
0.0328586
0.0406895
0.0406818
0.0474557
0.0285851
0.0425321
0.00756148
0.0515716
0.0327944
0.0118183
0.043845
0.0490894
0.0466476
0.0429184
0.0330138
0.0528768
0.0342724
0.0329302
0.0508596
0.0522225
0.0432278
0.0383043
0.032166
0.046952
0.0338553
0.0143169
0.0496599
0.0510682
0.033613
0.0496858
0.0496959
0.0434327
0.0308474
0.0428494
0.0319226
0.0426768
0.0458892
0.0428232
0.0337527
0.0530601
0.0441971
0.0343757
0.0331835
0.0473481
0.0529864
0.0191159
0.0332371
0.0338737
0.0450145
0.0505411
0.0177697
0.0440456
0.0307256
0.0262356
0.00610987
0.0400087
0.0408483
0.0464321
0.0326955
0.0330874
0.0431233
0.0344372
0.0513129
0.0529697
0.0517082
0.0344002
0.040144
0.0475887
0.0326079
0.0504069
0.0470099
0.0331628
0.040574
0.0293103
0.0331534
0.0447805
0.0458614
0.0480759
0.0341494
0.0354784
0.0400178
0.0404602
0.0358674
0.034278
0.0530831
0.0344006
0.0439595
0.0159183
0.0532463
0.0333738
0.0322453
0.0334088
0.0423916
0.0264366
0.0472357
0.0445046
0.0441647
0.0447322
0.0325737
0.0417817
0.0499654
0.0342178
0.0457103
0.0452483
0.0331146
0.035568
0.0414591
0.0487808
0.0338581
0.0484258
0.0409298
0.0338791
0.0240915
0.0327368
0.0312
0.041163
0.0442782
0.0516507
0.0526147
0.0512863
0.0328179
0.034289
0.0462331
0.0409724
0.0337124
0.0417247
0.0495131
0.0517383
0.0464675
0.0484148
0.0432737
0.0531711
0.0381755
0.0434966
0.0339482
0.0329351
0.0338278
0.041783
0.0353175
0.0449425
0.0184301
0.0348257
0.0342774
0.0506315
0.0449884
0.0400048
0.0454119
0.0390875
0.0332399
0.0464643
0.0445734
0.0492766
0.0331347
0.0335522
0.0295933
0.0342375
0.046511
0.0326667
0.0338882
0.0424853
0.0426855
0.0399039
0.0386753
0.045327
0.0399938
0.0392832
0.033691
0.034909
0.0529218
0.0472894
0.0335449
0.0470309
0.0398234
0.0420451
0.0476136
0.0376326
0.0452079
0.0243036
0.0325852
0.0520809
0.0321669
0.0518258
0.0338847
0.0300384
0.0315979
0.0413051
0.0532866
0.0338678
0.0259854
0.0331482
0.0337438
0.0482464
0.0209376
0.0434006
0.0403392
0.0341815
0.0476633
0.0514136
0.0437592
0.0442413
0.0335787
0.0372595
0.0474924
0.0339779
0.0327751
0.030986
0.0252251
0.016892
0.039101
0.0490863
0.033358
0.0326593
0.0266162
0.0370593
0.0332244
0.0327839
0.0403336
0.048964
0.046886
0.0335841
0.0401069
0.0347118
0.0325053
0.037738
0.0443281
0.0380726
0.0267517
0.0301164
0.0424079
0.0329012
0.0336045
0.0437418
0.0525126
0.0370629
0.013896
0.0227332
0.0437291
0.0288293
0.039385
0.0500287
0.0326681
0.0334537
0.0139578
0.0154553
0.0189259
0.0422668
0.0374626
0.0449999
0.0406015
0.0313305
0.0121966
0.044107
0.0519453
0.0509163
0.0334544
0.0520787
0.0368648
0.0412853
0.0330892
0.0290975
0.0329003
0.0465214
0.0274171
0.0440171
0.0336182
0.0429908
0.0472736
0.0320351
0.0134541
0.0487202
0.0407924
0.0395274
0.0491743
0.0333332
0.0533197
0.0457677
0.024608
0.0418545
0.0388329
0.0289808
0.0441938
0.0332065
0.0439695
0.0298973
0.0335406
0.0127264
0.0328983
0.0297594
0.0337467
0.0405878
0.0355348
0.0362817
0.0333515
0.0324728
0.0340111
0.0444791
0.0334282
0.0405656
0.0341844
0.0338318
0.0324096
0.0360253
0.0482571
0.048783
0.0253824
0.0363673
0.0313121
0.0420838
0.032575
0.0309624
0.0335287
0.0213716
0.0447573
0.0393721
0.0359776
0.0504914
0.0330419
0.0427723
0.0330075
0.033255
0.0334849
0.0400467
0.0194634
0.0435464
0.04483
0.0393353
0.0528632
0.0432554
0.0173219
0.0264851
0.0411467
0.0412276
0.0403064
0.0386532
0.0331235
0.0534173
0.0364895
0.0178094
0.040444
0.0228019
0.0511872
0.0517091
0.0477788
0.0327601
0.0317924
0.0419471
0.0271138
0.0434478
0.0334155
0.0333168
0.0392453
0.0299116
0.0331512
0.0302547
0.0149079
0.0334285
0.0350582
0.0326585
0.0404525
0.033102
0.0325196
0.0182549
0.035212
0.0179762
0.0327528
0.0381941
0.0355819
0.0310964
0.0422963
0.0111641
0.043964
0.0399449
0.0407476
0.0249627
0.0431972
0.0097337
0.015652
0.0136431
0.0322008
0.039503
0.0354509
0.0294344
0.0441415
0.0334616
0.0379745
0.0328709
0.0361008
0.0338723
0.0396153
0.0303289
0.0151009
0.035599
0.0396459
0.00983066
0.0481155
0.022365
0.0331559
0.0256161
0.0329647
0.0394173
0.033034
0.033698
0.0527761
0.0448005
0.0450948
0.0483982
0.0486781
0.0140548
0.01787
0.0386243
0.0472377
0.0354441
0.0366981
0.038848
0.033109
0.0270876
0.0327033
0.0333575
0.0220988
0.0330187
0.039856
0.0329061
0.0396108
0.0349629
0.0307436
0.0392087
0.0331388
0.0327474
0.0230318
0.0346072
0.029527
0.042437
0.0534512
0.0267793
0.0492448
0.0463481
0.041993
0.0333963
0.0398112
0.0477411
0.0278911
0.0318751
0.0396084
0.0350099
0.0335466
0.0390156
0.0393227
0.0107019
0.0336437
0.0324243
0.0224021
0.0327611
0.032887
0.049659
0.0413144
0.0404109
0.0508297
0.0389468
0.0352274
0.033285
0.0457128
0.0391545
0.0436151
0.0112068
0.0328426
0.0254206
0.0380221
0.0177481
0.032911
0.0341579
0.0305917
0.0491132
0.0389138
0.0189791
0.0354984
0.0391804
0.0335654
0.0364647
0.0351147
0.0269432
0.038792
0.040349
0.0331646
0.0328934
0.0331946
0.032863
0.04311
0.0357572
0.0386677
0.00609777
0.0470466
0.0119521
0.0331445
0.0328058
0.00795734
0.0315931
0.0332748
0.0334318
0.0373325
0.0323914
0.0530392
0.0351262
0.0231278
0.0420552
0.038874
0.0343749
0.0310148
0.0333871
0.0153319
0.0453575
0.0360182
0.0390407
0.0345409
0.0477756
0.0298549
0.0346825
0.0158426
0.0328399
0.0242737
0.0281039
0.0387266
0.0328077
0.0293861
0.0532407
0.0335553
0.0483323
0.0409186
0.0291644
0.00582296
0.0336896
0.0506327
0.0330776
0.0371636
0.0468765
0.0332939
0.0330029
0.0345204
0.0475535
0.0349709
0.0353135
0.0338873
0.0396379
0.0080553
0.0363345
0.0380304
0.0380355
0.0381496
0.037034
0.0301935
0.0375117
0.0271507
0.046033
0.0333217
0.0145135
0.0328893
0.0331319
0.0376941
0.0194758
0.0330851
0.0377735
0.033036
0.0493
0.0382923
0.00687382
0.0151895
0.034759
0.0209353
0.0328941
0.0335039
0.0449607
0.0455691
0.0378198
0.0337926
0.0188323
0.0383639
0.0281072
0.0400203
0.0486052
0.0528793
0.0332726
0.0337635
0.0367139
0.0329608
0.032354
0.0339529
0.0306688
0.0352228
0.033148
0.0334581
0.0344476
0.0444636
0.00747456
0.0384271
0.0131144
0.0127208
0.0339476
0.0340933
0.0338884
0.0248635
0.0364792
0.0306448
0.0331047
0.0304547
0.0333871
0.0350865
0.00760586
0.0296913
0.0112196
0.02648
0.0358547
0.0227981
0.0390988
0.0335102
0.0506902
0.0165952
0.0338319
0.0363244
0.0335474
0.0330275
0.0180224
0.0438574
0.0336516
0.0451976
0.0330179
0.0368207
0.0502882
0.0325066
0.0330243
0.0346316
0.0273129
0.0365147
0.0330967
0.0298757
0.0337763
0.0329997
0.0342496
0.0339939
0.034167
0.0507964
0.0329419
0.0341658
0.0334139
0.0394036
0.0340478
0.0334983
0.0447706
0.0318581
0.0349145
0.0348211
0.0286756
0.0331661
0.0218003
0.0310672
0.0351594
0.0335819
0.0312133
0.0360006
0.046566
0.0372088
0.0260692
0.0344335
0.0232648
0.035772
0.0331243
0.0373069
0.0377183
0.033213
0.0330931
0.0336363
0.0336244
0.0369687
0.0358988
0.036966
0.00660535
0.0442135
0.0432111
0.0329019
0.033751
0.0336458
0.0510044
0.0507409
0.0171683
0.0299809
0.0378497
0.0344918
0.0163607
0.0174472
0.0339692
0.0475536
0.0430311
0.0340378
0.0291307
0.0361102
0.0511738
0.0339789
0.0356338
0.0330872
0.0387162
0.032961
0.0329897
0.0326896
0.0343523
0.0362162
0.0271071
0.0345747
0.0420623
0.0500517
0.0332485
0.036187
0.0331384
0.03346
0.032746
0.0291986
0.0336494
0.0509709
0.0283171
0.043576
0.0358441
0.0338048
0.0389504
0.0192704
0.0356314
0.0209771
0.0347649
0.033617
0.0327993
0.0324505
0.0141383
0.0346795
0.0336635
0.034278
0.048393
0.0321244
0.0338274
0.0106255
0.0277753
0.033095
0.0426675
0.032539
0.0356198
0.0321464
0.0341294
0.0343491
0.0475397
0.0491985
0.0348206
0.0320771
0.0358505
0.0428912
0.0320717
0.0243774
0.0336226
0.0345162
0.0300872
0.0467409
0.0330631
0.0102746
0.0282851
0.032772
0.0340305
0.0332535
0.0257909
0.0335717
0.00937407
0.0101291
0.0504171
0.0288232
0.0350153
0.0366298
0.0335346
0.0339094
0.0326439
0.0279286
0.0349643
0.0366667
0.0370969
0.0277621
0.0317125
0.0335001
0.0465494
0.0430256
0.0344006
0.0330567
0.0355779
0.0336526
0.0333798
0.0345028
0.0372288
0.0384268
0.0197165
0.0339176
0.0347311
0.0107103
0.0183953
0.0269584
0.0349381
0.045563
0.0352071
0.0342705
0.0499338
0.00553993
0.0316747
0.0386568
0.0355614
0.034029
0.0358745
0.036274
0.0282409
0.0324292
0.0242906
0.0316626
0.032229
0.0110919
0.045169
0.0352825
0.00958375
0.0219151
0.0315827
0.0422924
0.0346847
0.0362302
0.0323727
0.028707
0.0231249
0.0509959
0.0339928
0.0313682
0.0372418
0.0501513
0.0335357
0.0329857
0.027029
0.0351156
0.03101
0.0316072
0.0327983
0.0158446
0.0353212
0.0328851
0.0339041
0.0447875
0.0329038
0.0331758
0.0423292
0.0506542
0.0344281
0.0164435
0.0345198
0.0329085
0.0258649
0.0324845
0.0356899
0.031398
0.0323216
0.0318638
0.0330878
0.0356154
0.0179535
0.0426023
0.0340969
0.0333053
0.0360306
0.0261811
0.0350036
0.0288999
0.0183666
0.0348499
0.0351253
0.0367786
0.0053471
0.00701984
0.0324069
0.0356706
0.0335991
0.0214888
0.0356286
0.0270894
0.0255209
0.0111544
0.0444106
0.0368807
0.0356922
0.0321225
0.0363693
0.0342872
0.0340808
0.034675
0.0316412
0.0325323
0.0318545
0.0360489
0.0339828
0.0320309
0.021013
0.0200625
0.0353188
0.0339852
0.0312293
0.0324156
0.0100296
0.0313793
0.0325465
0.0340184
0.0326283
0.0345519
0.0505888
0.0383205
0.0161368
0.0121195
0.0312692
0.0341949
0.0328104
0.0117159
0.015999
0.0355268
0.0245854
0.0264613
0.0330777
0.0310902
0.036338
0.0337902
0.0385359
0.0234048
0.0244649
0.0425662
0.0358824
0.0352103
0.0343368
0.0285728
0.0244277
0.00975072
0.0350326
0.0359832
0.0164143
0.0342157
0.0440574
0.032989
0.035342
0.0321151
0.0360177
0.0370964
0.0334505
0.0349181
0.0167
0.0326352
0.0245654
0.0357537
0.0351569
0.0315524
0.0343727
0.0489056
0.0325808
0.0360446
0.0160561
0.0359513
0.0383097
0.0427911
0.0356698
0.0480959
0.0291928
0.0360106
0.0462167
0.0472042
0.0103149
0.0358639
0.036772
0.0495684
0.0230317
0.0367913
0.0326826
0.00851165
0.036038
0.0391291
0.0380737
0.0338833
0.0312706
0.0496887
0.0365449
0.0366717
0.0237783
0.0353754
0.035896
0.025616
0.0312717
0.0319654
0.0265076
0.0383447
0.0261415
0.0357139
0.046522
0.0460285
0.0190118
0.0282146
0.040673
0.0117676
0.0319926
0.0389872
0.0109127
0.036575
0.0347617
0.0360521
0.0362217
0.00786296
0.045463
0.0409758
0.036636
0.0437869
0.00514418
0.00688729
0.0212139
0.0172903
0.0410194
0.0204332
0.0358843
0.0359286
0.0340632
0.0397374
0.0357199
0.0327251
0.00932872
0.0315977
0.0505804
0.0503721
0.0355632
0.0364945
0.0156566
0.0450635
0.0335727
0.0219347
0.0361928
0.0240685
0.0222097
0.024142
0.0352597
0.0157841
0.0171604
0.0137518
0.0241782
0.0362361
0.0109832
0.0396544
0.0363878
0.0425803
0.0240175
0.0410774
0.0240605
0.0385813
0.00608435
0.0238595
0.0342994
0.0123306
0.0409669
0.0404642
0.00995637
0.0446746
0.0240875
0.0322398
0.0237919
0.0369762
0.0326743
0.0399619
0.0362024
0.039082
0.0348214
0.0340435
0.0318209
0.0225368
0.0394241
0.0158983
0.0399726
0.0384331
0.0314559
0.0244176
0.0296917
0.0140018
0.0152383
0.0249465
0.0362044
0.0363614
0.0325254
0.0348238
0.0401627
0.0214012
0.0410663
0.0365321
0.0443166
0.0386975
0.0374842
0.021242
0.0379236
0.0428108
0.0411063
0.0390583
0.0372435
0.0342793
0.0200846
0.0320547
0.0355908
0.0181629
0.0395967
0.0362441
0.0437216
0.0403554
0.0367929
0.0363914
0.0258848
0.0393983
0.0332947
0.0360752
0.0168767
0.0318465
0.0344688
0.0398406
0.0357434
0.0480233
0.0323566
0.0430155
0.0337453
0.0362678
0.0322683
0.0391914
0.0154432
0.0366168
0.0136003
0.0361907
0.0210542
0.0401193
0.00826821
0.0379987
0.0377875
0.0439716
0.0366797
0.0110797
0.0323346
0.0407721
0.0135918
0.0144902
0.0149062
0.0118431
0.0336918
0.0367014
0.0363551
0.0148029
0.0388651
0.0385025
0.0159075
0.0385114
0.0200406
0.0331585
0.0330519
0.0409058
0.0324708
0.0365567
0.0209074
0.0429679
0.0267766
0.0348717
0.033424
0.0431214
0.0350835
0.0125168
0.0192505
0.0393809
0.00920238
0.0209373
0.0373151
0.0216761
0.0341039
0.0384358
0.0220807
0.0392966
0.0382472
0.0222634
0.0331327
0.0428792
0.0154757
0.0225203
0.0225558
0.0356574
0.0343856
0.0338961
0.0381412
0.0350789
0.0331349
0.03931
0.0219797
0.0053231
0.00543636
0.023188
0.0367782
0.040487
0.0363572
0.0386091
0.0332308
0.00984617
0.038171
0.0345316
0.0356634
0.0384057
0.015591
0.0230308
0.0116013
0.024111
0.0388671
0.0381612
0.0143591
0.0432512
0.0336063
0.0352539
0.0389816
0.0350674
0.0176058
0.016387
0.0405169
0.0371214
0.0155365
0.0372276
0.0256923
0.0340849
0.0346083
0.00779244
0.0376694
0.0377018
0.0387836
0.0232943
0.0433082
0.0373531
0.0361146
0.0364583
0.0364628
0.0425931
0.0365903
0.036746
0.0341648
0.0149724
0.0369205
0.0421223
0.0368322
0.01504
0.0369177
0.0250669
0.036857
0.0197133
0.0139643
0.00758631
0.0387206
0.0345313
0.0350259
0.0382789
0.0379791
0.0385452
0.00676811
0.0138464
0.0432666
0.035779
0.0379684
0.0393405
0.0360998
0.0368713
0.0376718
0.0392136
0.0368569
0.0438537
0.0435668
0.0432075
0.0146538
0.0398795
0.0428818
0.0343954
0.0364978
0.0356881
0.0390679
0.0391408
0.0399619
0.0111106
0.0372018
0.0255381
0.0146468
0.0343185
0.038748
0.0133791
0.0381878
0.0381228
0.03852
0.0380084
0.0354189
0.0384782
0.0391929
0.03814
0.0365624
0.0382496
0.042413
0.0365706
0.038491
0.0363948
0.0369193
0.00597809
0.0348819
0.0397417
0.0354422
0.0429546
0.0363036
0.0371835
0.0138534
0.0131635
0.0386936
0.0105818
0.0402051
0.0380025
0.0393297
0.037233
0.0373993
0.0388907
0.0390654
0.0391919
0.0399545
0.0359795
0.0373097
0.035021
0.0423297
0.00838981
0.00564799
0.0365984
0.0369098
0.0421486
0.0194684
0.0303803
0.0381626
0.0390377
0.0402605
0.0406921
0.037794
0.0386649
0.025945
0.0249609
0.0368991
0.0356332
0.0353755
0.0367762
0.042929
0.0427616
0.0351332
0.0419514
0.0382806
0.0371653
0.0364671
0.0202089
0.0353518
0.0401557
0.0370258
0.00677281
0.00476844
0.0398941
0.0367516
0.0398524
0.0396665
0.0394761
0.0404658
0.0379941
0.0395438
0.0398271
0.0364264
0.0419397
0.0384362
0.0366071
0.0422
0.0368156
0.0430891
0.0358054
0.038134
0.0422212
0.0382575
0.0388821
0.0391308
0.0398957
0.0430422
0.0406912
0.0416464
0.036189
0.0403742
0.0375758
0.0362318
0.0360745
0.0293713
0.0309401
0.0292834
0.0413699
0.0128095
0.0419185
0.0369159
0.0364473
0.0405396
0.0420015
0.0418111
0.040562
0.0402063
0.0407837
0.0385054
0.0414222
0.038421
0.0364347
0.0418033
0.0422721
0.0407548
0.036897
0.0415332
0.0360981
0.0359026
0.0362279
0.0423236
0.042219
0.0370896
0.0410809
0.0408882
0.0367578
0.0412105
0.041399
0.036249
0.0432222
0.041709
0.0416128
0.0416159
0.042221
0.0422456
0.00371847
0.00401803
0.0213286
0.00247406
0.0407156
0.00498906
0.0327892
0.0343584
0.038719
0.0326735
0.0309425
0.0276443
0.0352213
0.0344585
0.0259165
0.0277003
0.0416421
0.0417642
0.0399842
0.0417476
0.0417451
0.041576
0.0413067
0.0411997
0.0356147
0.0357308
0.035785
0.0357408
0.035366
0.0355541
0.0411358
0.0421443
0.0482649
0.0423398
0.0416852
0.0421435
0.0135356
0.012336
0.0189197
0.015453
0.0173264
0.0110503
0.0184342
0.0343334
0.0102083
0.0187909
0.0131169
0.00681999
0.0480223
0.0186529
0.00809874
0.00996972
0.00844682
0.0344117
0.00755489
0.0198195
0.0340972
0.00902624
0.0144202
0.0310446
0.0196826
0.00809817
0.00778153
0.00668491
0.00479638
0.00934902
0.00466993
0.00551643
0.00513939
0.023846
0.0122882
0.0178364
0.00449794
0.00271133
0.00295952
0.0137459
0.0314472
0.03438
0.0048021
0.00636091
0.00596648
0.0186068
0.019349
0.0126147
0.0158659
0.0473819
0.0111518
0.00740019
0.00646395
0.00426197
0.00896139
0.00562865
0.00946575
0.00629933
0.00607331
0.00588693
0.00317318
0.0034366
0.0220285
0.0318409
0.0083203
0.0469091
0.00587089
0.00549331
0.00731209
0.00783686
0.0132933
0.00592907
0.0324153
0.00825108
0.0159878
0.0144365
0.00352875
0.0129103
0.00938555
0.00972654
0.00530471
0.0418888
0.0116749
0.032733
0.00879901
0.00851745
0.0467552
0.00800758
0.00686838
0.00400958
0.0180385
0.0330701
0.048328
0.00710012
0.00936843
0.00394174
0.0335191
0.0427009
0.00993368
0.0428015
0.0334302
0.00587957
0.0338946
0.0441585
0.0141475
0.0342005
0.0145359
0.011816
0.0107051
0.00366351
0.0338537
0.00571017
0.00493107
0.0474757
)
;

boundaryField
{
    patch0
    {
        type            kqRWallFunction;
        value           nonuniform List<scalar> 
4010
(
0.0202045
0.0202045
0.0295334
0.0295334
0.0507691
0.0507691
0.0514479
0.0514479
0.0277353
0.0277353
0.0518416
0.0518416
0.0511473
0.0511473
0.0514595
0.0514595
0.0498008
0.0498008
0.0504446
0.0504446
0.0501004
0.0501004
0.0488048
0.0488048
0.026245
0.026245
0.049323
0.049323
0.0516162
0.0516162
0.0520151
0.0520151
0.0277678
0.0277678
0.04841
0.04841
0.0182994
0.0182994
0.0488796
0.0488796
0.0175099
0.0175099
0.0337039
0.0337039
0.0278393
0.0278393
0.0482401
0.0482401
0.0335818
0.0335818
0.0321517
0.0321517
0.0321031
0.0321031
0.0471095
0.0471095
0.0367993
0.0367993
0.0492418
0.0492418
0.0289093
0.0289093
0.0332361
0.0332361
0.0165865
0.0165865
0.0280129
0.0280129
0.0470076
0.0470076
0.028895
0.028895
0.0319711
0.0319711
0.0421596
0.0421596
0.0484869
0.0484869
0.0289211
0.0289211
0.0315012
0.0315012
0.0194629
0.0194629
0.0324372
0.0324372
0.02602
0.02602
0.0490889
0.0490889
0.0298144
0.0298144
0.0230955
0.0230955
0.0509427
0.0509427
0.00900556
0.00900556
0.0117279
0.0117279
0.0175199
0.0175199
0.024644
0.024644
0.0338249
0.0338249
0.0147613
0.0147613
0.0229907
0.0229907
0.0503727
0.0503727
0.0182317
0.0182317
0.0493344
0.0493344
0.048076
0.048076
0.0381104
0.0381104
0.0243712
0.0243712
0.0527997
0.0527997
0.0227935
0.0227935
0.0510751
0.0510751
0.014019
0.014019
0.0511716
0.0511716
0.0493194
0.0493194
0.0308056
0.0308056
0.0361556
0.0361556
0.0187483
0.0187483
0.0219278
0.0219278
0.0524123
0.0524123
0.0501563
0.0501563
0.0481537
0.0481537
0.0472038
0.0472038
0.0258754
0.0258754
0.0502241
0.0502241
0.0468812
0.0468812
0.0510416
0.0510416
0.0215052
0.0215052
0.0413698
0.0413698
0.0345431
0.0345431
0.0488652
0.0488652
0.0191485
0.0191485
0.0165347
0.0165347
0.0314287
0.0314287
0.0482852
0.0482852
0.0517533
0.0517533
0.00934337
0.00934337
0.0221275
0.0221275
0.0499747
0.0499747
0.0340503
0.0340503
0.0247265
0.0247265
0.0286229
0.0286229
0.0236288
0.0236288
0.0115871
0.0115871
0.0504938
0.0504938
0.0426903
0.0426903
0.0386957
0.0386957
0.0255319
0.0255319
0.0493448
0.0493448
0.0237643
0.0237643
0.039387
0.039387
0.0364101
0.0364101
0.0285676
0.0285676
0.0456557
0.0456557
0.0462965
0.0462965
0.0267667
0.0267667
0.0372476
0.0372476
0.0306115
0.0306115
0.0498946
0.0498946
0.0398529
0.0398529
0.04271
0.04271
0.0508334
0.0508334
0.0500066
0.0500066
0.0169725
0.0169725
0.050908
0.050908
0.0510073
0.0510073
0.0336502
0.0336502
0.0493685
0.0493685
0.0134137
0.0134137
0.00793064
0.00793064
0.0138771
0.0138771
0.0183598
0.0183598
0.0513919
0.0513919
0.0322068
0.0322068
0.0269454
0.0269454
0.0463149
0.0463149
0.0390865
0.0390865
0.0124005
0.0124005
0.0484956
0.0484956
0.0493568
0.0493568
0.0203188
0.0203188
0.0511138
0.0511138
0.0252252
0.0252252
0.0358076
0.0358076
0.0448873
0.0448873
0.0446323
0.0446323
0.0486796
0.0486796
0.0466232
0.0466232
0.0507301
0.0507301
0.052988
0.052988
0.0160291
0.0160291
0.0160291
0.0101186
0.0101186
0.0101186
0.0515015
0.0515015
0.0161042
0.0161042
0.0269621
0.0269621
0.0258676
0.0258676
0.0365003
0.0365003
0.033046
0.033046
0.0476186
0.0476186
0.00777267
0.00777267
0.00777267
0.0273874
0.0273874
0.0501561
0.0501561
0.0521164
0.0521164
0.0317439
0.0317439
0.00808209
0.00808209
0.0481193
0.0481193
0.048333
0.048333
0.0440304
0.0440304
0.0506844
0.0506844
0.0253895
0.0253895
0.0516869
0.0516869
0.00809655
0.00809655
0.0416429
0.0416429
0.0356044
0.0356044
0.0378117
0.0378117
0.00788837
0.00788837
0.0484476
0.0484476
0.040463
0.040463
0.0228503
0.0228503
0.0523244
0.0523244
0.0447898
0.0447898
0.0363135
0.0363135
0.0509433
0.0509433
0.0297098
0.0297098
0.0503021
0.0503021
0.0194023
0.0194023
0.0265323
0.0265323
0.0521215
0.0521215
0.0310461
0.0310461
0.0502295
0.0502295
0.0478787
0.0478787
0.0375433
0.0375433
0.00769115
0.00769115
0.038877
0.038877
0.0278053
0.0278053
0.034116
0.034116
0.0480306
0.0480306
0.0497757
0.0497757
0.0275752
0.0275752
0.0517837
0.0517837
0.0473479
0.0473479
0.0526077
0.0526077
0.0431983
0.0431983
0.00803663
0.00803663
0.00803663
0.0374828
0.0374828
0.0304136
0.0304136
0.0291033
0.0291033
0.0309877
0.0309877
0.0106755
0.0106755
0.0374705
0.0374705
0.0418228
0.0418228
0.0518527
0.0518527
0.0247584
0.0247584
0.030424
0.030424
0.052855
0.052855
0.0284371
0.0284371
0.0270908
0.0270908
0.0184275
0.0184275
0.0184275
0.00845848
0.00845848
0.0460391
0.0460391
0.0496389
0.0496389
0.0429676
0.0429676
0.0334051
0.0334051
0.0464546
0.0464546
0.0355154
0.0355154
0.0287619
0.0287619
0.0522278
0.0522278
0.0457442
0.0457442
0.0294035
0.0294035
0.0490846
0.0490846
0.0417017
0.0417017
0.0500217
0.0500217
0.0505444
0.0505444
0.0367503
0.0367503
0.0471671
0.0471671
0.0429836
0.0429836
0.047046
0.047046
0.0314184
0.0314184
0.0182718
0.0182718
0.0444394
0.0444394
0.0296637
0.0296637
0.0226464
0.0226464
0.0403941
0.0403941
0.043996
0.043996
0.043996
0.049028
0.049028
0.0525616
0.0525616
0.0474474
0.0474474
0.00834134
0.00834134
0.00834134
0.0477231
0.0477231
0.0303408
0.0303408
0.0485093
0.0485093
0.0288536
0.0288536
0.0444651
0.0444651
0.0272477
0.0272477
0.0509605
0.0509605
0.0509062
0.0509062
0.0472752
0.0472752
0.0439344
0.0439344
0.0412599
0.0412599
0.00888536
0.00888536
0.0468887
0.0468887
0.0460212
0.0460212
0.047429
0.047429
0.0500779
0.0500779
0.0335276
0.0335276
0.0315697
0.0315697
0.0287352
0.0287352
0.0514376
0.0514376
0.0339904
0.0339904
0.0473729
0.0473729
0.0360231
0.0360231
0.0469369
0.0469369
0.0332572
0.0332572
0.0464832
0.0464832
0.0184411
0.0184411
0.0442745
0.0442745
0.0250526
0.0250526
0.0153953
0.0153953
0.031855
0.031855
0.0474541
0.0474541
0.0242216
0.0242216
0.0302627
0.0302627
0.0438367
0.0438367
0.0406536
0.0406536
0.0499447
0.0499447
0.0397209
0.0397209
0.0498387
0.0498387
0.0306586
0.0306586
0.0094039
0.0094039
0.00850062
0.00850062
0.00850062
0.0477997
0.0477997
0.0494643
0.0494643
0.0135131
0.0135131
0.0486568
0.0486568
0.0460124
0.0460124
0.0101587
0.0101587
0.0518577
0.0518577
0.0304875
0.0304875
0.0505604
0.0505604
0.0477979
0.0477979
0.0426151
0.0426151
0.04889
0.04889
0.0125971
0.0125971
0.0416208
0.0416208
0.0506608
0.0506608
0.0296272
0.0296272
0.045043
0.045043
0.0494879
0.0494879
0.0103807
0.0103807
0.0103807
0.0499086
0.0499086
0.0466334
0.0466334
0.0349072
0.0349072
0.050429
0.050429
0.0311115
0.0311115
0.0195374
0.0195374
0.0463938
0.0463938
0.0320918
0.0320918
0.0498785
0.0498785
0.0283118
0.0283118
0.0306672
0.0306672
0.0493638
0.0493638
0.0343991
0.0343991
0.0466442
0.0466442
0.0225126
0.0225126
0.0334672
0.0334672
0.0511216
0.0511216
0.0505658
0.0505658
0.0388024
0.0388024
0.046973
0.046973
0.0321572
0.0321572
0.0518983
0.0518983
0.046646
0.046646
0.0327308
0.0327308
0.0411481
0.0411481
0.0313507
0.0313507
0.0303626
0.0303626
0.0510706
0.0510706
0.046084
0.046084
0.0312497
0.0312497
0.0483631
0.0483631
0.0344638
0.0344638
0.0496554
0.0496554
0.0453506
0.0453506
0.0419422
0.0419422
0.040836
0.040836
0.0521616
0.0521616
0.0509165
0.0509165
0.0520414
0.0520414
0.0418997
0.0418997
0.0502758
0.0502758
0.0340782
0.0340782
0.0302119
0.0302119
0.0504701
0.0504701
0.0516812
0.0516812
0.0177473
0.0177473
0.0503597
0.0503597
0.0298481
0.0298481
0.0305994
0.0305994
0.0328586
0.0328586
0.0406895
0.0406895
0.0406818
0.0406818
0.0474557
0.0474557
0.0285851
0.0285851
0.0425321
0.0425321
0.00756148
0.00756148
0.0515716
0.0515716
0.0327944
0.0327944
0.0118183
0.0118183
0.043845
0.043845
0.0490894
0.0490894
0.0466476
0.0466476
0.0429184
0.0429184
0.0330138
0.0330138
0.0528768
0.0528768
0.0342724
0.0342724
0.0329302
0.0329302
0.0508596
0.0508596
0.0522225
0.0522225
0.0432278
0.0432278
0.0383043
0.0383043
0.032166
0.032166
0.046952
0.046952
0.0338553
0.0338553
0.0143169
0.0143169
0.0496599
0.0496599
0.0510682
0.0510682
0.033613
0.033613
0.0496858
0.0496858
0.0496959
0.0496959
0.0434327
0.0434327
0.0308474
0.0308474
0.0428494
0.0428494
0.0319226
0.0319226
0.0426768
0.0426768
0.0458892
0.0458892
0.0428232
0.0428232
0.0337527
0.0337527
0.0530601
0.0530601
0.0441971
0.0441971
0.0343757
0.0343757
0.0331835
0.0331835
0.0473481
0.0473481
0.0529864
0.0529864
0.0191159
0.0191159
0.0191159
0.0332371
0.0332371
0.0338737
0.0338737
0.0450145
0.0450145
0.0505411
0.0505411
0.0177697
0.0177697
0.0440456
0.0440456
0.0307256
0.0307256
0.0262356
0.0262356
0.00610987
0.00610987
0.00610987
0.0400087
0.0400087
0.0408483
0.0408483
0.0464321
0.0464321
0.0326955
0.0326955
0.0330874
0.0330874
0.0431233
0.0431233
0.0344372
0.0344372
0.0513129
0.0513129
0.0529697
0.0529697
0.0517082
0.0517082
0.0344002
0.0344002
0.040144
0.040144
0.0475887
0.0475887
0.0326079
0.0326079
0.0504069
0.0504069
0.0470099
0.0470099
0.0331628
0.0331628
0.040574
0.040574
0.0293103
0.0293103
0.0331534
0.0331534
0.0447805
0.0447805
0.0458614
0.0458614
0.0480759
0.0480759
0.0341494
0.0341494
0.0354784
0.0354784
0.0400178
0.0400178
0.0404602
0.0404602
0.0358674
0.0358674
0.034278
0.034278
0.0530831
0.0530831
0.0344006
0.0344006
0.0439595
0.0439595
0.0159183
0.0159183
0.0532463
0.0532463
0.0333738
0.0333738
0.0322453
0.0322453
0.0334088
0.0334088
0.0423916
0.0423916
0.0264366
0.0264366
0.0472357
0.0472357
0.0445046
0.0445046
0.0445046
0.0441647
0.0441647
0.0447322
0.0447322
0.0325737
0.0325737
0.0417817
0.0417817
0.0499654
0.0499654
0.0342178
0.0342178
0.0457103
0.0457103
0.0452483
0.0452483
0.0331146
0.0331146
0.035568
0.035568
0.0414591
0.0414591
0.0487808
0.0487808
0.0338581
0.0338581
0.0484258
0.0484258
0.0409298
0.0409298
0.0338791
0.0338791
0.0240915
0.0240915
0.0327368
0.0327368
0.0312
0.0312
0.041163
0.041163
0.0442782
0.0442782
0.0516507
0.0516507
0.0526147
0.0526147
0.0512863
0.0512863
0.0328179
0.0328179
0.034289
0.034289
0.0462331
0.0462331
0.0409724
0.0409724
0.0337124
0.0337124
0.0417247
0.0417247
0.0495131
0.0495131
0.0517383
0.0517383
0.0464675
0.0464675
0.0484148
0.0484148
0.0432737
0.0432737
0.0531711
0.0531711
0.0381755
0.0381755
0.0434966
0.0434966
0.0339482
0.0339482
0.0329351
0.0329351
0.0338278
0.0338278
0.041783
0.041783
0.0353175
0.0353175
0.0449425
0.0449425
0.0184301
0.0184301
0.0348257
0.0348257
0.0342774
0.0342774
0.0506315
0.0506315
0.0449884
0.0449884
0.0400048
0.0400048
0.0454119
0.0454119
0.0390875
0.0390875
0.0332399
0.0332399