/*--------------------------------*- C++ -*----------------------------------*\
  =========                 |
  \\      /  F ield         | OpenFOAM: The Open Source CFD Toolbox
   \\    /   O peration     | Website:  https://openfoam.org
    \\  /    A nd           | Version:  8
     \\/     M anipulation  |
\*---------------------------------------------------------------------------*/
FoamFile
{
    version     2.0;
    format      ascii;
    class       volScalarField;
    location    "0.8";
    object      nut;
}
// * * * * * * * * * * * * * * * * * * * * * * * * * * * * * * * * * * * * * //

dimensions      [0 2 -1 0 0 0 0];

internalField   nonuniform List<scalar> 
1924
(
0.00160766
0.00196135
0.00253439
0.00254618
0.00189503
0.00255648
0.00253771
0.00254609
0.00250232
0.00252782
0.0025099
0.00247423
0.00182164
0.00248886
0.00255359
0.00256793
0.00187234
0.00246324
0.00152193
0.00247653
0.00148779
0.0020607
0.00187613
0.00246041
0.00205683
0.00201418
0.00202154
0.00244741
0.00216085
0.00248606
0.00191021
0.00204566
0.00144569
0.00188073
0.00244785
0.00191053
0.00200487
0.00232233
0.00246614
0.00191042
0.00199125
0.00157059
0.00202035
0.00181361
0.00248552
0.00194489
0.00171378
0.00252969
0.00106526
0.00121727
0.00148875
0.00176723
0.00206477
0.00136638
0.00170532
0.00252587
0.00151822
0.00249229
0.00245983
0.00220839
0.00175407
0.00258443
0.00169711
0.00252996
0.00133114
0.00253612
0.00251713
0.00197201
0.00214137
0.0015396
0.0016642
0.0025826
0.00250748
0.0024574
0.00243493
0.0018068
0.00251059
0.00242485
0.00253119
0.00164847
0.00227381
0.00210313
0.00248203
0.00155609
0.0014435
0.00199135
0.00246856
0.00255461
0.00108539
0.00167283
0.00253087
0.00208057
0.00176964
0.00190448
0.00172895
0.0012078
0.00251821
0.00230241
0.00222842
0.00179538
0.0024999
0.00173495
0.00225174
0.00215638
0.00190426
0.00238449
0.00242132
0.00184093
0.00217944
0.00196882
0.00250224
0.00224515
0.00234374
0.0025277
0.00250387
0.00146483
0.00253751
0.00254716
0.00206019
0.00248706
0.00129913
0.000381607
0.00132395
0.00152302
0.00256201
0.00202594
0.00184333
0.00240857
0.00222813
0.000441044
0.00246669
0.0025002
0.000186125
0.00253511
0.00178688
0.00213398
0.0023884
0.00237995
0.00247243
0.0024395
0.00252835
0.00259549
0.000130036
0.000103805
0.00255054
0.00142321
0.00184927
0.0018071
0.00215582
0.00204225
0.00244947
0.000188886
0.0018585
0.00251942
0.0025636
0.00201349
0.00038525
0.00247251
0.00246064
0.000273766
0.00252282
0.00179001
0.00255537
0.000385564
0.00229698
0.00213054
0.002196
0.000288499
0.00246537
0.00226726
0.0016984
0.00256862
0.00235962
0.00214861
0.00253536
0.00193838
0.00251287
0.000361944
0.00183006
0.00256583
0.00199198
0.00252801
0.00244994
0.00219039
0.000983693
0.00221633
0.00187265
0.00209572
0.00245275
0.00249873
0.00186897
0.00255434
0.00243186
0.0025756
0.00234807
0.000192064
0.00220157
0.00196119
0.00191979
0.00197929
0.000252718
0.00218668
0.00230617
0.00255536
0.00177702
0.00197212
0.00258118
0.001894
0.00184859
0.000134252
0.00039408
0.00241616
0.00249782
0.00234352
0.00207548
0.00240946
0.00212429
0.00190924
0.00256426
0.00239114
0.00193601
0.00248741
0.00230494
0.00250838
0.00252132
0.00218195
0.00242549
0.0023117
0.00244922
0.00199302
0.000247607
0.00239449
0.00193756
0.000344011
0.00228539
0.000206897
0.00248393
0.00257185
0.00245602
0.000195668
0.00246557
0.00196017
0.0024697
0.0019086
0.000385801
0.00185332
0.00253166
0.00253144
0.00243549
0.00233588
0.002276
0.000345835
0.00244677
0.00241738
0.00243604
0.0025113
0.0020558
0.00199737
0.00191432
0.00254315
0.00208339
0.00245562
0.00213832
0.00242463
0.00204611
0.00241503
0.00152759
0.00234836
0.00177808
0.000305402
0.00200683
0.00244536
0.00174591
0.00195968
0.00237813
0.00226025
0.00250489
0.00226835
0.00251222
0.00196874
0.000272584
0.000140723
0.0024815
0.00250966
0.00130421
0.00247058
0.00239211
0.000360685
0.00255333
0.0019631
0.00253285
0.00244863
0.00234671
0.0024848
0.00126205
0.0022964
0.00252751
0.00193331
0.00237019
0.00249839
0.000209084
0.00251536
0.0024255
0.00210325
0.00251739
0.0019937
0.00157148
0.00241673
0.0020144
0.00250652
0.00189
0.0019684
0.00250819
0.00208169
0.00241001
0.00168555
0.00207137
0.00253435
0.0025341
0.00223003
0.00242824
0.00201643
0.00256162
0.00242457
0.00204866
0.00226803
0.00200149
0.00195606
0.002536
0.00239434
0.00198749
0.00249508
0.00208388
0.00249692
0.0023824
0.00233085
0.00228761
0.00257014
0.00254373
0.00256589
0.00228503
0.00251392
0.00207151
0.00195303
0.00252623
0.00256823
0.000227582
0.0025419
0.0019409
0.00197272
0.00203418
0.000346143
0.000524348
0.00245204
0.00189928
0.00230328
0.000975069
0.00254566
0.00203231
0.0012184
0.00238248
0.00249411
0.00243335
0.00235311
0.00203858
0.00258321
0.00207757
0.00204038
0.00254323
0.00257242
0.0023445
0.00221915
0.00201001
0.00244373
0.00206916
0.000310124
0.00250698
0.00254166
0.00205695
0.00252757
0.00252617
0.00232661
0.00198464
0.00234526
0.00200939
0.00232537
0.00239824
0.00234849
0.00206409
0.00258805
0.00048045
0.00208042
0.00206851
0.00247108
0.00258759
0.000116752
0.00204823
0.00206517
0.0023637
0.00254151
0.0014951
0.00234678
0.00196906
0.00182003
8.64078e-05
0.00226407
0.0022749
0.0024483
0.00202848
0.00204339
0.00236464
0.00208229
0.002539
0.00258319
0.0025622
0.00208488
0.00224928
0.00245739
0.00202802
0.00251689
0.00244438
0.00204732
0.00226268
0.00192284
0.00204281
0.00238909
0.00238703
0.00245617
0.00207368
0.00212061
0.00226532
0.0022531
0.00213257
0.00207792
0.00259048
0.00208579
0.0023693
0.00141793
0.00259023
0.00204964
0.00201997
0.00205406
0.00233553
0.00184917
0.00246677
0.000178309
0.00239093
0.00236541
0.00204856
0.00231998
0.00251861
0.0020755
0.002421
0.00237266
0.00204516
0.00214467
0.00230023
0.00249047
0.00206576
0.00249371
0.00226293
0.00206547
0.00174486
0.0020329
0.00198453
0.00230377
0.00239057
0.00256214
0.00257244
0.00253851
0.00203376
0.00207712
0.0024091
0.00228438
0.00206285
0.0022835
0.00249291
0.0025503
0.00244682
0.00248858
0.00236588
0.00259083
0.00220828
0.00236825
0.00206768
0.0020364
0.00206905
0.00230533
0.00211606
0.00236011
0.0015262
0.00210134
0.00207748
0.00252343
0.00239129
0.00225396
0.00241642
0.00223815
0.0020505
0.0024174
0.00238164
0.00250084
0.00204545
0.00205519
0.00193225
0.00207841
0.00243454
0.00203026
0.0020652
0.00232735
0.00231098
0.00224665
0.00222649
0.00241291
0.00226871
0.00224623
0.00205967
0.00212517
0.0025804
0.00246292
0.00205646
0.00244738
0.00223889
0.00231722
0.00246844
0.0022086
0.00238227
0.00175234
0.0020267
0.00257244
0.00201505
0.00255331
0.00206533
0.00194757
0.00199754
0.00230324
0.00259435
0.00206716
0.00181097
0.00204232
0.00206149
0.00245711
0.00162801
0.00233065
0.00226742
0.00208087
0.00244537
0.00253903
0.00237275
0.00234654
0.00206094
0.00218102
0.00246423
0.00206891
0.00203457
0.00197794
0.00178427
0.0014626
0.00222517
0.00248201
0.00204895
0.00202939
0.0018323
0.00217546
0.00204763
0.00203293
0.0022493
0.00247849
0.00242607
0.00205637
0.00225973
0.00209723
0.00202501
0.00219727
0.00236025
0.00220789
0.00183781
0.00194927
0.00231929
0.00203739
0.00205691
0.0023687
0.00256934
0.00217531
0.00132472
0.00169536
0.00236045
0.00190546
0.00223378
0.0025065
0.00202802
0.00205367
0.000335232
0.00139869
0.00154846
0.00231661
0.00218838
0.00236291
0.00228312
0.00198778
0.00123724
0.00237253
0.00257121
0.00252667
0.0020523
0.00256123
0.00218624
0.0022734
0.00204269
0.00191368
0.00203465
0.00243425
0.00185987
0.00233495
0.00205753
0.00235103
0.00246202
0.00201139
0.00130124
0.00247258
0.00227822
0.00223404
0.00248453
0.00204836
0.00259437
0.00239681
0.00176242
0.00231826
0.00224389
0.00191375
0.00237967
0.00204808
0.00233522
0.00194146
0.00205566
0.00126391
0.00203769
0.00195684
0.00206542
0.002274
0.00212469
0.00214965
0.0020496
0.00202292
0.00207113
0.00238146
0.00205137
0.00226965
0.00207953
0.00206536
0.00202135
0.0021401
0.00247746
0.0024984
0.00178929
0.00215163
0.00198594
0.00229641
0.00202516
0.00197819
0.00205589
0.00164282
0.00237089
0.00223728
0.00213744
0.00251688
0.0020392
0.00234222
0.00203991
0.00204635
0.00205347
0.00224184
0.00156827
0.00232338
0.00238891
0.00223464
0.00257887
0.0023521
0.00148099
0.00182766
0.00228493
0.00228957
0.00227327
0.00222448
0.00204185
0.00259791
0.00215542
0.00150052
0.00226086
0.0016971
0.00253278
0.00256849
0.00244434
0.00203262
0.00200086
0.00231439
0.00184923
0.00233715
0.00205139
0.00204779
0.0022241
0.00194067
0.00204518
0.0019545
0.00137237
0.00205435
0.00210716
0.00202895
0.00226321
0.00204233
0.00202458
0.00151954
0.00211152
0.0015045
0.00203058
0.00222301
0.00212369
0.00197789
0.00232339
0.00118596
0.00235251
0.00226178
0.00225987
0.00177375
0.00235336
0.000247793
0.000162624
0.00130977
0.00201555
0.00224059
0.0021179
0.00192836
0.00235482
0.0020524
0.00220388
0.00203415
0.00214165
0.00206801
0.00225222
0.00195342
0.00138082
0.00212308
0.00223276
0.000246832
0.00245432
0.000391331
0.0020437
0.00179575
0.00203837
0.00223844
0.00203943
0.00206235
0.00257695
0.00238516
0.00238627
0.00249145
0.00247255
0.00132946
0.00149934
0.00222301
0.00243662
0.00211677
0.00215829
0.00221683
0.00204169
0.00184703
0.00202988
0.00204945
0.00166889
0.00204042
0.00225996
0.00203662
0.00223355
0.00210194
0.00197035
0.00222527
0.0020434
0.00203089
0.00170348
0.00209021
0.00192744
0.00230828
0.00259986
0.00183875
0.00248713
0.00241466
0.00231358
0.0020521
0.00225422
0.00244441
0.00187515
0.00200177
0.00224657
0.00210324
0.00205474
0.00221966
0.00222823
0.00116213
0.00205999
0.00201964
0.00168237
0.00203305
0.00203496
0.00249713
0.00227662
0.00226696
0.0025282
0.00223363
0.00210962
0.00204763
0.00240013
0.00222441
0.00233836
0.000269721
0.00203353
0.00178846
0.00220264
0.00149495
0.0020359
0.00207483
0.00196142
0.00250968
0.00222433
0.00154486
0.00212025
0.0022271
0.00205548
0.00215437
0.00210564
0.00184156
0.00222876
0.00225142
0.00204366
0.00203585
0.00204428
0.00203471
0.00232907
0.00212891
0.00221372
8.08767e-05
0.0024236
0.000303121
0.00204383
0.00203272
0.00100018
0.0019928
0.00204801
0.00205114
0.002182
0.00201797
0.00258539
0.00210643
0.00170556
0.00229762
0.00223169
0.00208307
0.00197465
0.00205055
0.00138862
0.00239178
0.00213888
0.00222705
0.0020886
0.00245002
0.00193791
0.00209328
0.00141116
0.00203376
0.00174664
0.001881
0.00221444
0.00203157
0.00192251
0.00259811
0.00205552
0.00246389
0.00226604
0.0019155
0.000224563
0.00206107
0.00252168
0.00204074
0.00217609
0.00242731
0.00205004
0.00203876
0.00208866
0.00243899
0.00210141
0.00211335
0.0020652
0.00223343
0.000238362
0.00214519
0.00219694
0.00219533
0.00219229
0.00217288
0.00194871
0.00218675
0.00184754
0.00240771
0.00204848
0.00134913
0.0020354
0.00204237
0.00218739
0.00156373
0.00204175
0.00218973
0.00204009
0.00248794
0.00219748
8.58696e-05
0.00137922
0.00209521
0.0016205
0.00203546
0.00205409
0.00238037
0.00239709
0.00219695
0.00206204
0.00153932
0.00220264
0.00188097
0.00224315
0.0024994
0.00258322
0.00204815
0.00206167
0.00216167
0.00203746
0.00201622
0.00207164
0.00196765
0.00211047
0.00204158
0.00205406
0.00208608
0.00236528
0.000126808
0.00220497
0.0012873
0.00032267
0.00207045
0.00207113
0.00207009
0.00176658
0.00215413
0.00196263
0.00204151
0.000227571
0.00204973
0.00210728
0.000121221
0.00193252
0.000136898
0.00182413
0.00213216
0.00170149
0.00222002
0.00205398
0.00252412
0.00144314
0.00206847
0.00214451
0.00205453
0.00203967
0.00150121
0.00234793
0.00205853
0.00238743
0.00203932
0.00216293
0.00251313
0.00202581
0.00204001
0.00209194
0.00185724
0.00215513
0.00204255
0.00193818
0.00206227
0.00203864
0.00208035
0.00206772
0.0021188
0.00252732
0.00203484
0.00207614
0.00205583
0.00222767
0.00207024
0.00205279
0.00237443
0.00200065
0.00210105
0.00209745
0.00189913
0.00204332
0.00165309
0.00197571
0.00210799
0.00205592
0.00198503
0.00213592
0.00241067
0.00216838
0.00184376
0.00208152
0.00170757
0.00212914
0.00204604
0.00217066
0.00218092
0.00204938
0.00204339
0.00205782
0.00205668
0.00216414
0.00212948
0.00216379
0.000129339
0.0023579
0.00233047
0.00204044
0.00206141
0.00206254
0.00253116
0.00252032
0.00147721
0.00194144
0.00218553
0.00208713
0.00143108
0.00147849
0.00206796
0.00244175
0.00232163
0.00206902
0.00191356
0.00214039
0.00253846
0.00207178
0.00212437
0.00204131
0.00221016
0.00203782
0.00203846
0.00203375
0.00207947
0.00213964
0.00184477
0.00208507
0.00228784
0.0025072
0.00204596
0.00213902
0.00204635
0.00205173
0.00203179
0.0019158
0.00205791
0.00252976
0.00188668
0.00234024
0.00212881
0.00206197
0.00221611
0.00155282
0.00212341
0.00162107
0.00209163
0.00205709
0.00203403
0.00202576
0.000339609
0.00209225
0.00205845
0.00207622
0.000639212
0.00201552
0.00206349
0.00115716
0.00186846
0.00204001
0.00231633
0.00202764
0.00212334
0.0020141
0.00207267
0.00208214
0.000633497
0.000644529
0.00209226
0.00201419
0.00212948
0.00230741
0.00201328
0.00174824
0.00205721
0.00208434
0.00194373
0.000628713
0.00204055
0.0011348
0.00188509
0.00203172
0.00207299
0.00204619
0.00179858
0.00205875
0.000116729
0.000121361
0.00251666
0.00190346
0.00209882
0.00215228
0.00205468
0.00206517
0.00202828
0.001873
0.00210137
0.00215313
0.00216378
0.00187403
0.0020025
0.00205333
0.000627645
0.00232592
0.00208353
0.00204324
0.00212006
0.00205807
0.0020495
0.0020831
0.0021676
0.00220226
0.00157235
0.00206613
0.00209369
0.000138673
0.00151886
0.00184025
0.00209692
0.000621361
0.0021038
0.00207685
0.000649429
0.000197942
0.00200063
0.00220827
0.00212016
0.00207226
0.00212872
0.00214084
0.00188384
0.00202335
0.00175429
0.00199962
0.00201596
0.000150412
0.000618708
0.00210659
0.000265063
0.00165763
0.0019975
0.00230726
0.00208937
0.00213938
0.00201659
0.00189847
0.0017032
0.00253243
0.00207143
0.00199048
0.00221476
0.00250849
0.00205732
0.0020405
0.00184222
0.00210537
0.001973
0.00199661
0.00203195
0.000359927
0.00210819
0.00203503
0.00206506
0.000616046
0.00203545
0.0020438
0.00234998
0.000654275
0.00208321
0.00143829
0.00208419
0.00203529
0.00180264
0.0020243
0.00212214
0.00199088
0.00201746
0.00200469
0.00204061
0.00211609
0.00150297
0.00231526
0.00207401
0.00204742
0.0021332
0.00181276
0.00210209
0.00191127
0.00152396
0.00209531
0.00210248
0.00215509
8.90358e-05
0.000102096
0.00202049
0.00211808
0.00205622
0.00165044
0.00212056
0.00184465
0.00178978
0.00118281
0.000613426
0.00215789
0.00211921
0.00201223
0.00214354
0.00207918
0.00207423
0.00209002
0.00199568
0.00202493
0.00200266
0.00213353
0.00207222
0.00200886
0.00162503
0.00158724
0.00211038
0.00206804
0.00198485
0.00202008
0.000130264
0.00198983
0.00202426
0.00207308
0.00202641
0.00208953
0.000653936
0.00219989
0.00143167
0.000370298
0.00198585
0.00207937
0.00203205
0.000154648
0.00142
0.00211442
0.00175799
0.00182228
0.00204014
0.0019783
0.00214253
0.00206223
0.00220549
0.00171409
0.00175214
0.00231683
0.00212434
0.00210755
0.002079
0.00189406
0.00175134
0.00110763
0.00210317
0.00213588
0.000366823
0.00207977
0.000611002
0.00203828
0.00210937
0.00200998
0.00212848
0.00217204
0.00205149
0.00210095
0.00144958
0.00202642
0.00175691
0.00212508
0.00210371
0.00199434
0.00207982
0.000321294
0.00202557
0.00212978
0.00142131
0.00212962
0.00220506
0.002322
0.00212278
0.000318646
0.001916
0.00212927
0.00239946
0.000315701
0.00114094
0.00212442
0.00215436
0.00249228
0.00170038
0.00216251
0.00202773
0.000217857
0.00213518
0.00222645
0.0021987
0.00206481
0.00198538
0.000323858
0.00215371
0.00215156
0.0017264
0.00211039
0.0021278
0.00179155
0.00198517
0.00200693
0.00182547
0.00219993
0.00181276
0.00212108
0.000313729
0.000312189
0.00154656
0.00188149
0.00226934
0.000155
0.00200584
0.00222244
0.000271152
0.00215119
0.00209181
0.00213185
0.0021388
0.000197583
0.000310349
0.00227404
0.00214505
0.000609148
9.31358e-05
0.000107769
0.00163292
0.00147496
0.00227495
0.00160301
0.00212512
0.00212613
0.00207117
0.0022425
0.00211981
0.00202838
0.000135583
0.00199528
0.00032692
0.000326193
0.00211648
0.00214181
0.00140357
0.000308976
0.0020561
0.00165781
0.00213405
0.000452263
0.00167074
0.000452602
0.00210363
0.000360188
0.00146942
0.00131998
0.000452897
0.00213886
0.000304482
0.00224044
0.00213989
0.000608121
0.000451211
0.00227788
0.000451383
0.00220642
0.000198736
0.000450171
0.00207764
0.0012462
0.0022746
0.00226333
0.000190365
0.00030762
0.000451471
0.00201521
0.00172865
0.00215531
0.00202865
0.00225162
0.00213445
0.0022234
0.00208886
0.00207212
0.00200091
0.000437464
0.00223546
0.00142788
0.00224505
0.00220186
0.00199059
0.00175176
0.00193817
0.000169128
0.00138473
0.000459323
0.00213821
0.00214294
0.00202183
0.00209361
0.00225348
0.00163936
0.00227472
0.00213959
0.000306389
0.00220949
0.00216826
0.00163436
0.000567004
0.00232382
0.0022784
0.00221961
0.00216157
0.00207321
0.000412446
0.00200933
0.00211733
0.000391954
0.00222972
0.00213886
0.000608702
0.00226111
0.00215467
0.00213904
0.000467868
0.00223346
0.00204793
0.00213136
0.000377728
0.00200215
0.00208285
0.00224749
0.00211545
0.00031986
0.00201887
0.00232878
0.00206181
0.00213795
0.00201448
0.00222501
0.00139389
0.00214631
0.00130809
0.00213457
0.00162694
0.00224623
0.000132335
0.000567397
0.000567244
0.000305207
0.00214867
0.000305879
0.00201773
0.00226564
0.00130773
0.000344837
0.000174767
0.00122269
0.00205629
0.00215232
0.00214282
0.00136474
0.00221269
0.00220304
0.00036665
0.00219423
0.00158681
0.00204088
0.00204063
0.00226824
0.0020214
0.00214488
0.00162085
0.00232698
0.000476716
0.00209046
0.00205213
0.00233286
0.00210306
0.00125495
0.000201523
0.00222583
0.000281502
0.000210375
0.00216053
0.000214114
0.00206891
0.00219521
0.000216162
0.00221832
0.00057104
0.000217067
0.00204095
0.00231933
0.000361839
0.000218289
0.000218481
0.00211991
0.00208225
0.00206325
0.00218677
0.00210075
0.00204266
0.00222538
0.00167021
9.24762e-05
9.33908e-05
0.000221349
0.00215224
0.00225657
0.00213484
0.000572021
0.002046
0.000288881
0.000568605
0.00208691
0.00211509
0.00057053
0.000363399
0.00170145
0.00120899
0.000225709
0.000573804
0.00218481
0.00017171
0.00233185
0.00205622
0.00210277
0.00221639
0.00210296
0.0001926
0.000185854
0.00225891
0.00215662
0.000181075
0.00216247
0.000466866
0.00206953
0.00208689
0.000127961
0.000282878
0.000283196
0.000575036
0.00171128
0.00233686
0.00216849
0.00212869
0.00213998
0.00214649
0.00231133
0.00214764
0.00215403
0.00207545
0.000177798
0.002161
0.00230107
0.0021533
0.000354421
0.00215858
0.000230187
0.0021562
0.00157586
0.000176233
0.000253609
0.00221059
0.00208677
0.00209706
0.002195
0.000284443
0.00220163
0.000119734
0.000336852
0.000605497
0.00211859
0.00218904
0.00222331
0.00213441
0.00215785
0.00217232
0.000576161
0.00215487
0.000304776
0.000303785
0.00233303
0.000175994
0.00223744
0.000603007
0.00208092
0.00214721
0.00211812
0.00221374
0.00221602
0.00224019
0.00118234
0.00216935
0.000232852
0.000176062
0.00207941
0.000286458
0.000165619
0.00219883
0.00218806
0.00220206
0.000283674
0.00211436
0.000286338
0.000576927
0.00219112
0.00214953
0.000284589
0.000598838
0.00214752
0.00028553
0.00214431
0.00215246
0.000112632
0.00209469
0.00223507
0.00211093
0.000603532
0.00213656
0.00216987
0.000171216
0.000166878
0.00221161
0.00115389
0.00224775
0.00219538
0.00222781
0.00216874
0.00216561
0.00221033
0.000287559
0.00222521
0.00224342
0.00213103
0.00217238
0.00210066
0.00230994
0.000266666
0.000109391
0.00214646
0.00216063
0.00230597
0.00156391
0.00195935
0.000569335
0.000288467
0.00225551
0.0022597
0.000565331
0.00221534
0.000467892
0.00022972
0.00215432
0.00211727
0.00211233
0.00215101
0.000301692
0.00030082
0.00210159
0.000595908
0.000570161
0.000560502
0.00214214
0.00159365
0.00210981
0.00225739
0.00215937
0.000239616
0.000100518
0.00223925
0.00215058
0.00224309
0.000579279
0.000288971
0.00225796
0.00219381
0.00222783
0.00224423
0.00214014
0.00229682
0.00220934
0.00055657
0.000298707
0.0021551
0.000604319
0.00212142
0.000284306
0.00230516
0.000285014
0.000574103
0.000287968
0.0022521
0.000302034
0.00226941
0.000593887
0.00213665
0.0022514
0.000281693
0.000554118
0.00213092
0.000497499
0.000510606
0.000248317
0.00227963
0.000161941
0.00229581
0.000279346
0.00214118
0.00226952
0.00229941
0.000297517
0.000292777
0.000583048
0.000587225
0.000571519
0.000592303
0.000285543
0.000277746
0.00229537
0.00230791
0.00227038
0.00215454
0.000296532
0.000276531
0.000551516
0.00213508
0.00231194
0.00230906
0.00216159
0.00227106
0.00227563
0.00215359
0.000295306
0.000592107
0.00213762
0.000302587
0.000594771
0.000296879
0.000593518
0.00230659
0.00230949
8.87725e-05
0.000184552
0.000214006
7.24079e-05
0.000586546
0.000102822
0.000262695
0.000538546
0.000286462
0.000524504
0.000255209
0.000241235
0.000546117
0.000269659
0.000233575
0.000483098
0.000594226
0.000297682
0.000290733
0.000297622
0.000595281
0.000296738
0.000591266
0.000295069
0.000274635
0.000275071
0.000550546
0.000275093
0.000273567
0.000548808
0.000294913
0.00230483
0.00246021
0.00231092
0.00228875
0.00230294
0.000332896
0.000158848
0.00154321
0.00139484
0.00147629
0.000151679
0.00152226
0.0020804
0.00113266
0.001537
0.000329129
0.000223147
0.00245383
0.00153173
0.000116507
0.000143204
0.000119054
0.00208199
0.000974614
0.00158123
0.00207402
0.000123096
0.00134957
0.00198079
0.00157399
0.000105029
0.000102939
0.000105889
8.96889e-05
0.000134029
8.85061e-05
9.61712e-05
9.28361e-05
0.00174105
0.000287255
0.00149781
7.98265e-05
6.25245e-05
6.53198e-05
0.000303842
0.00199313
0.00208097
8.84016e-05
7.1577e-05
6.93297e-05
0.00152989
0.0015602
0.000221202
0.00141495
0.00243789
0.00118548
0.000964522
0.000223079
8.74272e-05
0.000303586
0.000194366
0.000320834
0.000205587
0.000201933
0.000198762
6.24113e-05
6.49682e-05
0.00168599
0.00200573
0.00102405
0.0024205
0.000116469
0.000177284
0.000165458
0.0009934
0.00129533
0.000190019
0.00202407
0.00101953
0.0014209
0.00135065
8.07178e-05
0.00127661
0.00108738
0.00110755
0.000190451
0.00229307
0.00121368
0.00203407
0.000120341
0.00103556
0.00242161
0.00100417
0.000159396
8.10606e-05
0.00151003
0.00204345
0.00246363
0.000944884
0.00108682
7.50645e-05
0.00205674
0.00231004
0.00111911
0.00232259
0.00205372
0.000200051
0.00206727
0.00234937
0.00133541
0.00207628
0.00135323
0.00122031
0.00116133
5.34508e-05
0.00206565
0.000173908
7.76155e-05
0.00244017
)
;

boundaryField
{
    patch0
    {
        type            nutkWallFunction;
        Cmu             0.09;
        kappa           0.41;
        E               9.8;
        value           nonuniform List<scalar> 
4010
(
0.000151714
0.000151714
0.000223763
0.000223763
0.000287758
0.000287758
0.000289526
0.000289526
0.000217411
0.000217411
0.000290507
0.000290507
0.00028821
0.00028821
0.000283728
0.000283728
0.000279603
0.000279603
0.000286831
0.000286831
0.000282024
0.000282024
0.000283627
0.000283627
0.000206585
0.000206585
0.000285014
0.000285014
0.000284723
0.000284723
0.000286965
0.000286965
0.000204845
0.000204845
0.000282564
0.000282564
0.00014419
0.00014419
0.000283764
0.000283764
0.000143511
0.000143511
0.000239231
0.000239231
0.00021026
0.00021026
0.00028205
0.00028205
0.000238955
0.000238955
0.000224659
0.000224659
0.000220811
0.000220811
0.000251991
0.000251991
0.000247935
0.000247935
0.000283911
0.000283911
0.000222414
0.000222414
0.000234918
0.000234918
0.000137965
0.000137965
0.000202293
0.000202293
0.0002644
0.0002644
0.000190649
0.000190649
0.000219441
0.000219441
0.000254549
0.000254549
0.000279278
0.000279278
0.000222465
0.000222465
0.000217961
0.000217961
0.000159268
0.000159268
0.000225251
0.000225251
0.000184038
0.000184038
0.000283525
0.000283525
0.000221223
0.000221223
0.000170497
0.000170497
0.000288272
0.000288272
0.000104029
0.000104029
0.000117326
0.000117326
0.000140848
0.000140848
0.000205134
0.000205134
0.000239461
0.000239461
0.00013027
0.00013027
0.000199837
0.000199837
0.000286722
0.000286722
0.00014417
0.00014417
0.000283861
0.000283861
0.000279846
0.000279846
0.000241421
0.000241421
0.000176011
0.000176011
0.0002875
0.0002875
0.000177434
0.000177434
0.000288782
0.000288782
0.000127245
0.000127245
0.000288605
0.000288605
0.000277052
0.000277052
0.000222266
0.000222266
0.000245819
0.000245819
0.000145456
0.000145456
0.00017164
0.00017164
0.000282579
0.000282579
0.000286372
0.000286372
0.000270872
0.000270872
0.000266421
0.000266421
0.000208073
0.000208073
0.000285061
0.000285061
0.000265587
0.000265587
0.000288679
0.000288679
0.000172794
0.000172794
0.000263237
0.000263237
0.000230314
0.000230314
0.000282905
0.000282905
0.000182341
0.000182341
0.000137334
0.000137334
0.000209805
0.000209805
0.000281089
0.000281089
0.000285626
0.000285626
0.000105787
0.000105787
0.00017673
0.00017673
0.000283926
0.000283926
0.00022635
0.00022635
0.000206764
0.000206764
0.000211001
0.000211001
0.000201171
0.000201171
0.000116676
0.000116676
0.000286628
0.000286628
0.000265097
0.000265097
0.000247598
0.000247598
0.000206714
0.000206714
0.000283784
0.000283784
0.000201709
0.000201709
0.000254661
0.000254661
0.000236401
0.000236401
0.000220286
0.000220286
0.000272334
0.000272334
0.000267295
0.000267295
0.000214292
0.000214292
0.000239287
0.000239287
0.000213675
0.000213675
0.000280592
0.000280592
0.000245991
0.000245991
0.000248752
0.000248752
0.000288199
0.000288199
0.000285255
0.000285255
0.000172306
0.000172306
0.000288107
0.000288107
0.000284256
0.000284256
0.000207474
0.000207474
0.000272655
0.000272655
0.000124831
0.000124831
4.09078e-05
4.09078e-05
0.000126681
0.000126681
0.000163164
0.000163164
0.000287017
0.000287017
0.000227841
0.000227841
0.00020121
0.00020121
0.000266739
0.000266739
0.000238441
0.000238441
4.66668e-05
4.66668e-05
0.00027695
0.00027695
0.000283991
0.000283991
2.20304e-05
2.20304e-05
0.000288862
0.000288862
0.000207396
0.000207396
0.000230404
0.000230404
0.000256174
0.000256174
0.000255509
0.000255509
0.000283204
0.000283204
0.00025871
0.00025871
0.000287636
0.000287636
0.000291417
0.000291417
1.57382e-05
1.57382e-05
1.57382e-05
1.22285e-05
1.22285e-05
1.22285e-05
0.000289728
0.000289728
0.000135539
0.000135539
0.000215018
0.000215018
0.000197701
0.000197701
0.000243528
0.000243528
0.000213906
0.000213906
0.000279247
0.000279247
2.14773e-05
2.14773e-05
2.14773e-05
0.00019935
0.00019935
0.000286242
0.000286242
0.000291254
0.000291254
0.000217436
0.000217436
4.12622e-05
4.12622e-05
0.000267224
0.000267224
0.000281586
0.000281586
3.30615e-05
3.30615e-05
0.0002878
0.0002878
0.000209334
0.000209334
0.000290346
0.000290346
4.12958e-05
4.12958e-05
0.000243322
0.000243322
0.000229683
0.000229683
0.000235429
0.000235429
3.16838e-05
3.16838e-05
0.000270194
0.000270194
0.000242246
0.000242246
0.000198617
0.000198617
0.0002913
0.0002913
0.000266998
0.000266998
0.000233381
0.000233381
0.000288201
0.000288201
0.000225485
0.000225485
0.000286775
0.000286775
4.11015e-05
4.11015e-05
0.000178513
0.000178513
0.000291405
0.000291405
0.000224319
0.000224319
0.000278257
0.000278257
0.000268596
0.000268596
0.000234699
0.000234699
9.68225e-05
9.68225e-05
0.000215233
0.000215233
0.000200722
0.000200722
0.000226968
0.000226968
0.000276913
0.000276913
0.00028545
0.00028545
0.000217197
0.000217197
0.000284527
0.000284527
0.000279597
0.000279597
0.000292693
0.000292693
0.000256462
0.000256462
2.18105e-05
2.18105e-05
2.18105e-05
0.000236853
0.000236853
0.00022796
0.00022796
0.000222766
0.000222766
0.000229955
0.000229955
2.8089e-05
2.8089e-05
0.000217345
0.000217345
0.000247146
0.000247146
0.000283968
0.000283968
0.0002062
0.0002062
0.000227643
0.000227643
0.000289321
0.000289321
0.000202659
0.000202659
0.000205549
0.000205549
1.62046e-05
1.62046e-05
1.62046e-05
4.21276e-05
4.21276e-05
0.000256925
0.000256925
0.000281607
0.000281607
0.000250628
0.000250628
0.000230776
0.000230776
0.000274552
0.000274552
0.000237354
0.000237354
0.000221774
0.000221774
0.000284883
0.000284883
0.00027161
0.00027161
0.000219508
0.000219508
0.00028189
0.00028189
0.000246263
0.000246263
0.00028419
0.00028419
0.000280772
0.000280772
0.000234758
0.000234758
0.000279159
0.000279159
0.000262081
0.000262081
0.000269298
0.000269298
0.000231435
0.000231435
2.66692e-05
2.66692e-05
0.000269059
0.000269059
0.00022524
0.00022524
4.01322e-05
4.01322e-05
0.00024509
0.00024509
2.50351e-05
2.50351e-05
2.50351e-05
0.000276882
0.000276882
0.000285716
0.000285716
0.000267557
0.000267557
2.21878e-05
2.21878e-05
2.21878e-05
0.00026987
0.00026987
0.000227353
0.000227353
0.000277082
0.000277082
0.000203998
0.000203998
4.63547e-05
4.63547e-05
0.000214978
0.000214978
0.00028272
0.00028272
0.000288106
0.000288106
0.000266987
0.000266987
0.000264576
0.000264576
0.000248691
0.000248691
3.73958e-05
3.73958e-05
0.000276684
0.000276684
0.000270839
0.000270839
0.000279447
0.000279447
0.000284831
0.000284831
0.000235507
0.000235507
0.000227448
0.000227448
0.000221443
0.000221443
0.000282898
0.000282898
0.000225846
0.000225846
0.000278224
0.000278224
0.000232676
0.000232676
0.000275265
0.000275265
0.000237209
0.000237209
0.000264551
0.000264551
0.000175896
0.000175896
0.000265564
0.000265564
0.000208035
0.000208035
3.41377e-05
3.41377e-05
0.000232368
0.000232368
0.000277478
0.000277478
0.000195888
0.000195888
0.000223781
0.000223781
0.000266767
0.000266767
0.000261112
0.000261112
0.000285519
0.000285519
0.000243374
0.000243374
0.000284816
0.000284816
0.000228751
0.000228751
3.01415e-05
3.01415e-05
1.63545e-05
1.63545e-05
1.63545e-05
0.000275374
0.000275374
0.000283936
0.000283936
0.000125246
0.000125246
0.000275088
0.000275088
0.000275895
0.000275895
3.88564e-05
3.88564e-05
0.00028398
0.00028398
0.000227864
0.000227864
0.000287355
0.000287355
0.000268058
0.000268058
0.000251296
0.000251296
0.000274588
0.000274588
0.00012168
0.00012168
0.000228466
0.000228466
0.000286439
0.000286439
0.000206493
0.000206493
0.000271174
0.000271174
0.000283194
0.000283194
2.35821e-05
2.35821e-05
2.35821e-05
0.000285629
0.000285629
0.000268064
0.000268064
0.00022565
0.00022565
0.000287625
0.000287625
0.000228288
0.000228288
0.000180663
0.000180663
0.000267432
0.000267432
0.000232403
0.000232403
0.000285644
0.000285644
0.000214018
0.000214018
0.000192091
0.000192091
0.000283276
0.000283276
0.000241645
0.000241645
0.00027758
0.00027758
0.000192925
0.000192925
0.000223568
0.000223568
0.00028483
0.00028483
0.000287133
0.000287133
0.000239137
0.000239137
0.000265825
0.000265825
0.000223213
0.000223213
0.000290838
0.000290838