/*--------------------------------*- C++ -*----------------------------------*\
  =========                 |
  \\      /  F ield         | OpenFOAM: The Open Source CFD Toolbox
   \\    /   O peration     | Website:  https://openfoam.org
    \\  /    A nd           | Version:  8
     \\/     M anipulation  |
\*---------------------------------------------------------------------------*/
FoamFile
{
    version     2.0;
    format      ascii;
    class       volScalarField;
    location    "0.8";
    object      p;
}
// * * * * * * * * * * * * * * * * * * * * * * * * * * * * * * * * * * * * * //

dimensions      [1 -1 -2 0 0 0 0];

internalField   nonuniform List<scalar> 
1924
(
0
-14.0927
-44.1449
-51.7177
-18.1615
-55.4414
-62.2383
-66.759
-73.3199
-38.5025
-79.9658
-85.5928
-14.0526
-91.7762
-89.1543
-81.1968
-14.6398
-96.9059
-25.743
-100.922
-13.7978
-18.4404
-13.1811
-103.159
-17.365
-14.3474
-18.943
-24.9591
-17.9427
32.5701
-14.0355
-20.0806
-7.48771
-14.1771
-32.7592
-12.3583
-28.5222
-19.7166
39.7929
-14.2399
-30.1139
-14.0116
-21.3648
-11.8071
-36.8795
-17.2782
-90.4546
-54.9149
231.048
54.7772
82.9195
-14.9034
-17.8309
172.984
-18.3709
-39.752
-46.7425
-31.7271
-27.7895
-11.3024
-10.1048
-76.4221
-9.68035
52.5653
244.686
-43.7266
-30.1502
-13.2981
-17.807
18.3512
-15.3312
-61.392
51.852
20.8371
11.1243
-18.5541
-43.3878
-3.45393
-41.5379
-7.0215
-70.0091
-17.6032
6.9824
-14.9401
7.68467
-11.8267
-32.8419
-93.3485
168.302
-15.3705
-33.8997
-12.8266
-18.4001
-19.5548
-15.4963
328.003
-47.5805
-76.7487
-11.0297
-16.8547
-35.5106
-15.3802
-13.8924
-13.4107
-21.6001
-31.3946
-27.8249
-19.4696
-6.02564
-18.8955
-51.8641
-19.5036
-15.2099
29.0149
-35.1192
-15.4498
-39.9322
-73.9619
-8.90586
-44.7551
37.0958
738.554
26.1953
-15.2431
-39.2528
-21.323
-18.6624
-12.7919
-19.6001
746.676
-53.6064
-33.9583
-19.6143
20.2976
-15.2507
-25.0924
-26.2261
-22.1452
-104.459
-15.2698
-49.8408
-51.3301
-72.5269
7.50677
-44.2946
597.303
-20.8355
-16.7481
-1.30777
-7.37826
36.5336
832.976
-18.0139
-38.2889
-50.7395
-21.7794
741.058
-31.6918
-60.7306
-94.7974
26.7945
-19.1603
-43.4579
737.665
61.302
-25.475
-25.6004
788.887
-44.4109
-22.9083
-18.0263
-56.4652
-31.0734
-8.758
-39.6091
-20.105
36.4942
-14.4429
-10.8424
-48.6985
-22.3895
-72.9958
-9.76869
-28.0611
372.052
-47.8628
-18.61
-25.8261
-49.1194
7.95478
-20.2737
-63.9523
-62.6595
-55.8467
-30.8936
831.461
-28.1563
-20.4396
-20.9255
-19.5979
24.1874
-20.6618
-29.7738
-70.2869
-19.3545
-23.8482
-60.8988
-17.5468
-16.8272
-15.1507
735.562
-28.2188
-104.06
-32.0814
-26.7875
-24.008
0.571012
-20.6345
-68.7129
-13.4297
-20.5413
-24.0136
-27.5785
-102.121
-79.3519
-28.2231
-70.2239
-44.3605
-37.7832
-20.4927
-18.8469
-16.9958
-21.9705
-14.1772
-29.9249
36.0244
-103.039
-74.3717
-34.1146
829.435
-57.6982
-24.2239
-103.628
-18.0572
-96.7952
-16.3329
-84.9927
-48.0621
-13.2503
-37.9012
-45.0451
760.699
-37.4011
-31.7623
-48.5809
-99.1495
-9.84875
-25.8636
-22.0971
-82.2732
-24.6874
-35.8609
-4.77066
-25.4689
-16.9092
11.6941
-16.9867
-25.2917
-18.9261
-70.8551
-18.6533
45.1642
-18.1405
-30.9237
-12.9487
-72.7797
-90.9931
-28.7157
-37.0843
-21.3719
53.7863
857.577
-28.6909
-43.8058
51.6874
6.70922
-72.7513
764.535
-85.8184
-25.9249
-43.9239
34.8271
-28.5297
-98.8593
4.10756
57.7457
-97.467
-16.7185
-19.6847
-96.6824
831.924
-37.5126
-101.412
0.368278
-94.0342
-33.2396
-12.4815
-100.832
-29.2139
-23.3207
-16.3955
-3.58329
-39.7808
-16.5552
-56.3344
-12.3124
-24.6737
-91.4563
-42.5283
-27.2688
21.2431
-19.4938
-45.2804
52.4245
-24.3
-55.3401
-28.0433
-32.7757
-50.0338
-82.5257
-23.2472
-20.2946
-16.1551
-99.144
-6.17307
-24.4648
-12.6058
-52.1702
-49.347
-48.0117
-48.6621
37.3723
-15.4787
-16.9105
-93.1755
-55.133
-17.9472
-32.6082
-1.88999
-33.254
-15.9496
-71.9563
78.6671
-94.5118
-15.5846
-35.7807
574.269
-91.9806
-25.5761
373.976
-25.1397
-90.6298
-96.9882
-15.0081
-14.8498
-56.257
-15.4431
-17.8295
-44.9808
-50.6553
-96.5273
-28.5043
-30.4544
-53.1727
-8.65501
-13.8835
-89.1288
-89.1392
-13.0347
-34.2391
-41.7269
-29.8326
-30.1946
-31.2568
-22.2641
-95.7578
2.57191
-15.8956
-10.4122
-57.9472
89.2477
-15.4768
-29.2418
-17.3558
-60.2247
-20.1552
-9.24114
-13.408
-84.167
-62.2436
530.765
-19.8944
-15.6653
-19.9807
881.305
-6.61387
-85.4203
-20.1351
-25.1084
-10.8618
-19.7758
-15.1611
-96.0904
-67.0054
-52.3428
0.422018
-64.9399
-85.9666
-9.71493
-54.0918
-86.6646
-18.8982
-81.0189
-15.4989
-11.1446
-91.297
-56.9932
42.0209
-14.1421
-4.84219
-7.89547
-58.9851
-5.37561
-12.9825
-57.1193
-4.65797
-92.7358
26.4197
-70.3652
-10.7836
-23.5443
-5.67019
-31.2748
67.267
-21.705
-348.184
-21.654
-13.8394
-29.4066
-6.62244
-81.3158
-14.2552
-34.1487
-94.0831
-6.66738
-27.3013
-90.4464
-82.3063
-9.73449
-37.2507
-45.3527
-11.8758
-12.106
-7.95258
-15.8533
-7.29692
-9.71776
-46.4829
-79.6052
-29.0202
-8.09944
-14.2707
18.3262
-86.5789
-16.5976
-39.7803
55.5403
-92.5949
-22.6395
-49.5306
-16.9021
-66.3736
-1.82392
-10.9791
-12.1293
-9.18885
-1.66981
-38.7544
-2.08083
-65.887
9.81321
-1.7268
-14.1406
-58.0171
-80.0398
-75.4279
-28.9947
-1.87156
-2.9298
49.4873
-80.5928
-78.5986
-20.555
-9.15212
-15.0804
0.23956
-79.0063
-4.6412
-13.1311
-86.0917
-28.5943
-67.2202
-2.04062
-33.675
-2.45708
-3.26064
-9.68779
-24.3133
-79.3364
-41.0591
-9.97603
-77.3601
-53.9527
-85.3819
-37.7918
-22.2296
-0.0988128
-10.1491
-6.13887
-50.8687
-7.18568
-94.6134
-13.32
-8.45281
-14.7098
-5.16871
-62.2713
-16.6376
-13.0063
-7.39386
-10.727
56.8656
-5.91111
-23.9847
-80.287
-0.316023
40.2596
61.9582
-13.0287
-92.738
-1.50835
0.13814
-47.5459
-13.3511
-1.56978
-7.56894
-11.1137
81.1099
60.9655
53.0282
-8.0595
-7.50183
-19.659
-0.123127
-21.3572
-11.5135
-47.9455
-63.8594
28.4939
-11.1407
-73.2149
-0.126477
-2.12498
-0.269543
-15.6317
-0.793902
-7.54388
-15.3346
-70.822
-6.70628
-8.52481
-24.6836
-84.8602
-0.463627
249.502
-13.9181
-69.5912
-0.505255
-60.8539
40.1684
-5.05403
-11.531
-36.3791
111.133
38.4875
-72.4721
-1.49734
-47.5895
-5.8843
-6.73318
384.929
-71.4368
-44.1244
76.8747
-12.0328
-90.7284
-18.7495
-37.4832
-13.3377
1.19856
-5.50322
-67.0834
-5.62178
-66.4272
-8.94085
-13.0362
-33.2415
-14.2324
304.898
64.5075
-74.2746
-54.5012
-68.8816
-7.02706
-67.6965
8.26518
-9.26126
-19.1357
-16.1577
-4.74093
-33.4737
-0.916885
-49.2821
-6.16803
-11.6862
365.291
-1.18977
90.9406
-0.264113
-72.485
0.503048
1.14468
-9.66943
-1.38045
0.223797
-65.7266
-7.49612
-35.7713
0.0543078
-18.4554
-6.92788
0.645739
-29.6848
-38.8497
-6.65617
0.708935
-6.28092
-32.7302
-2.87183
-3.60155
-10.0977
6.49887
-10.1386
-63.4316
0.416162
70.8551
-3.16179
-27.256
-8.77353
-9.97431
-7.73284
-44.4526
-3.70264
-75.7496
-58.6054
-57.8451
-82.1316
-37.4358
62.9485
-4.25272
-58.1462
-59.945
-6.62799
-1.87858
-4.21148
-61.2448
0.736995
156.783
-59.5428
-2.91048
42.1885
-45.6128
-74.2354
-0.861664
-6.47946
-59.2398
-3.17372
-23.4188
-7.93846
-6.42534
-49.4011
-5.34941
-0.392356
-14.727
97.8708
-0.157105
0.47185
-1.08387
-60.515
-9.52603
-7.56176
33.3867
0.89905
280.753
-1.88699
-13.7864
1.75306
-6.00062
-54.9752
115.764
-20.3026
-15.4458
-39.8153
-6.49404
-32.4191
8.1361
-14.1346
145.286
-14.4265
-59.2195
1.5863
-2.04968
81.0038
-6.59339
-2.52182
-2.1499
0.0881083
0.0473152
-6.77848
-5.76976
85.4751
1.65622
-45.0724
493.196
-81.9498
75.1358
-8.15793
-3.92926
-8.29014
-55.0901
-2.4731
0.438238
-85.9838
113.965
80.492
-30.9128
46.1738
114.537
551.707
-12.0873
18.4889
1.44432
-25.3664
-50.3471
-4.45696
-1.40172
-1.03653
-6.1582
8.41009
-0.310925
-20.9844
-0.546799
91.8893
1.26538
-14.453
-48.7016
-7.96416
-1.23848
-0.716933
0.601593
-2.66626
-31.8949
-65.0199
-20.0884
-104.009
1.69011
-33.5884
-0.039192
-46.9499
54.8923
-0.823312
-6.07615
-47.4068
1.79808
-4.76694
-46.816
-47.8985
252.493
0.0984703
-6.60961
-10.0876
-14.4434
-1.6552
64.6177
-38.2848
-41.2406
111.211
-16.6987
2.04507
-6.34398
-3.05988
-49.6905
64.8919
440.331
-7.05027
-0.958125
-5.11265
67.864
-1.75984
-11.6708
-5.16498
-34.1573
-37.6339
46.0663
1.3355
-47.9057
-4.66324
-0.30146
2.0042
0.581176
-24.8881
-42.2039
-6.8976
-0.483659
-3.20597
-0.69158
-27.9043
-3.50888
-45.0336
504.797
-87.5541
402.791
-0.170526
-0.959183
688.906
-6.10513
-0.0300056
-4.37273
-10.3209
-6.70087
-78.5489
1.94977
2.50421
-34.5336
-20.7828
0.698939
-5.5152
-6.20115
83.6182
-20.2464
-1.16401
-34.0226
1.01411
23.5627
-1.03566
1.82639
83.6669
-1.1388
3.31729
1.48029
-43.0635
-6.99021
7.84408
-55.4507
-5.09162
39.7474
-39.1498
5.87098
226.47
0.136625
91.99
-6.75237
-6.98499
3.47633
0.412074
-1.47442
1.92264
-95.0877
1.91089
0.837102
-3.94429
-41.5706
113.038
-19.9518
-37.4196
-38.5231
-41.304
-14.0241
-3.25249
-25.1387
2.88571
4.22791
-6.2063
86.2732
-0.46342
-1.69961
-32.7505
63.7001
-0.0927997
-29.9245
-0.236162
57.7489
-40.8287
230.974
80.5595
2.01721
15.6711
-0.619597
-5.2071
-28.4365
-16.2638
-22.3185
-3.37018
396.31
-40.0648
4.15603
-39.4251
-26.3331
-81.2136
0.129249
-4.0572
-11.3716
-0.942658
-6.68506
1.1086
-14.2026
-3.48848
-7.04602
0.178765
2.07302
-34.3978
225.343
-39.2802
174.938
294.32
0.540353
-3.13166
1.24703
5.02864
-17.0693
-4.99207
-1.0984
81.5169
-6.64638
-0.178905
76.3712
5.66334
-12.9444
5.59047
-6.20321
52.2635
-38.4692
-6.12133
-100.21
82.7816
1.54317
-23.4842
-1.97801
-0.0673306
80.1299
-38.2416
-5.52186
-25.139
-0.179549
-21.1638
84.3276
0.43921
0.161309
1.42244
-19.48
-14.5651
0.221448
-1.21518
-4.80255
-0.459923
1.94882
-2.25208
143.06
138.67
-7.15822
-17.1367
1.57873
-37.5572
-3.78737
-6.85283
-31.4159
-7.22996
-0.794016
-2.29892
5.8196
-0.604485
15.9016
-5.48946
-4.92465
-6.16093
-14.0694
-17.8916
-98.6978
-31.7841
140.332
-2.66306
11.044
-10.1152
0.592865
-33.1306
-34.5076
0.642124
0.387901
-5.50451
-0.890484
-24.793
-15.6322
-27.117
366.736
-36.6872
-38.3383
0.875479
-4.84469
1.7747
-8.12922
47.7725
83.8242
-3.88893
-34.0159
1.00294
70.3306
82.2404
-3.89677
-102.912
68.0535
-1.50172
10.1494
-16.3874
-97.3825
1.88756
-8.15554
-0.00573314
-34.239
0.31217
0.253804
0.719727
-2.79412
-20.8061
8.45202
-2.05042
-60.3056
-101.177
-0.123491
-18.9149
1.7765
-7.19781
0.452276
5.69811
-6.70404
129.993
9.21462
-37.1355
-16.7685
-0.43539
-34.8447
64.7681
-12.1174
47.0921
-1.76659
-5.83212
0.45147
0.936494
120.448
-5.16217
-5.08419
-0.643292
21.8294
0.340228
-4.54767
154.92
13.4994
-7.40108
-39.5097
0.412912
-10.9158
0.464674
-3.61239
-2.61458
2.05428
42.7071
-1.76721
0.218564
-16.0353
-58.5728
0.930792
18.569
-6.82564
-2.47738
-5.42863
11.6402
0.440118
399.301
-3.23324
0.591067
0.1305
0.351688
13.1492
1.27027
510.76
469.401
-99.0683
11.8558
-1.52066
-21.6571
-6.03293
0.0444455
0.594258
13.945
-7.52807
-24.4124
-27.8198
-19.6648
0.0333719
-4.99384
-34.7562
-43.4683
-4.19876
1.6962
-13.4734
-4.57545
-7.29949
-0.104297
-28.8213
-29.3031
116.488
-3.77929
-6.60898
425.581
150.699
9.84414
-1.57054
-28.3474
-0.655624
-2.61536
62.2016
283.913
-0.155597
-30.2429
-12.4077
-1.65006
-15.1693
-18.3266
10.7283
1.19052
83.2454
0.240257
0.53591
335.621
-33.6788
-0.926229
51.9017
70.698
0.0688976
-26.3783
-1.74955
-17.1676
-7.28757
-4.74401
31.1456
-97.2882
-0.373283
-0.353958
162.943
-6.53976
0.88129
1.45894
-3.3907
-9.71145
-3.97257
0.431549
-6.59661
118.55
-0.989645
0.793144
0.542843
-37.8923
-5.89002
0.762469
172.654
105.972
-4.44622
641.395
0.383031
-4.50922
17.356
1.18251
-13.4707
-0.714005
-7.61953
-0.109416
-4.12544
-0.0154543
476.55
-23.9538
-1.97042
-3.32826
-14.3689
19.105
-8.79459
-19.2168
143.763
-6.59858
-1.06283
-20.7507
162.577
40.751
0.75347
-0.14913
-2.01492
95.5292
-12.7116
14.7385
9.30754
412.628
-36.847
-22.8704
-0.447481
0.686764
-17.6789
-3.67148
-1.12742
-5.76277
-10.3736
-0.0303762
-5.18586
-14.9189
-0.126383
-1.34094
165.221
254.641
-11.0089
-1.38691
-0.240971
-4.2955
77.8502
0.247298
-3.10745
-0.624078
-3.43495
1.2049
156.882
-25.3463
207.138
768.73
-0.619163
0.704249
-2.48662
267.057
264.988
-0.673925
39.6098
-13.081
-0.918331
-5.68573
-16.0549
0.999386
-26.3494
74.4318
21.4574
-29.3584
0.587289
-10.3188
0.895571
-9.03323
49.5819
264.271
0.422216
-0.948488
286.711
-0.136682
-42.5364
1.0359
-8.63342
-1.53649
0.353971
0.252838
-0.199535
0.599179
597.241
-1.75285
47.3474
-3.86445
-7.90467
0.609856
-0.875722
28.8508
0.98723
0.0949814
659.871
-13.0416
-0.93647
-31.899
0.634963
12.8517
-9.80637
-5.97954
-39.851
15.6747
206.395
0.177995
-17.1231
-19.1054
62.7826
-0.569064
-2.27389
393.097
-2.98921
0.587116
-1.70257
0.216111
0.156516
51.3615
-0.578263
-15.7577
20.6349
-1.54109
-12.4956
-9.16961
-0.158698
0.777801
19.1967
-20.0985
21.191
-11.4286
-49.863
-19.7847
424.04
-9.2579
2.10995
251.537
-0.994585
-1.48953
93.8673
-0.86963
-0.101621
-5.16107
-13.9833
420.94
-28.0515
-7.45209
-8.16022
-3.24025
201.578
95.6315
213.325
475.019
-11.093
292.646
1.20312
-10.1711
1.28375
0.481965
-9.60521
-1.67558
9.59141
0.659806
82.3393
75.4527
-11.0739
-7.26486
593.134
-34.8335
1.32503
74.8125
1.04623
-1.74496
138.914
-4.2977
-3.69365
398.293
406.38
277.295
-2.63593
-12.4405
785.712
-0.272423
0.728427
173.129
-1.33249
-2.03988
-4.40642
-22.1582
300.798
-1.28238
0.704436
112.182
-11.9755
2.77391
835.756
-35.2238
0.221559
1.06862
121.556
-4.33356
1.19565
-1.42924
0.328
-5.82956
-3.45143
-15.844
-0.238014
-10.7566
-3.79823
202.153
-2.67757
-15.1557
0.395568
88.9417
-19.3017
354.927
658.324
0.0416716
-13.3205
-13.5848
-0.661387
0.459297
-0.335821
158.672
0.717277
-4.65308
-41.8089
-15.9265
-10.1562
304.731
-48.6506
-24.8361
0.829219
-7.93916
-9.32067
-2.07265
-27.3484
1.04461
1.66499
-3.82125
-6.79463
-12.0202
-48.4364
-3.18467
-13.2536
-10.918
0.69383
-5.08742
1.58558
1.57425
52.9782
0.443307
0.609198
-2.40904
-3.14773
167.084
1.27298
-26.9798
1.60758
-11.4123
0.155011
-7.01755
457.222
-11.182
586.966
-11.3293
289.964
-7.52065
851.692
10.8491
-6.53835
-14.188
1.50088
783.021
1.25822
-3.57407
651.167
456.209
457.563
131.356
-0.585481
-12.0338
-12.478
393.422
-12.8284
-11.4731
118.339
-5.97229
359.221
0.196421
1.86038
-2.98382
0.893933
1.22901
308.782
-20.2997
-3.14664
-0.965313
1.96035
-15.7045
2.10231
463.725
-8.19595
-10.108
216.386
-4.71205
-3.45127
-4.65314
0.166219
-11.9114
-2.66674
-6.60539
-5.07518
4.55538
1.04632
-10.7146
184.455
-8.66998
-3.13323
2.03212
-16.0389
0.513559
-11.2657
0.705944
2.17817
-9.22053
120.039
249.455
156.85
-1.29558
1.97432
-9.04811
-0.520009
-5.92286
2.38058
779.884
-10.3919
2.65554
-0.0322787
-2.57722
328.394
205.448
399.808
-1.18802
-7.34916
-4.8486
492.471
-9.8464
2.96519
-0.177105
-9.86711
2.61301
2.84946
-6.60638
-7.55143
-0.60152
17.2868
-11.7415
6.05607
2.38975
1.13356
849.222
-69.0592
-6.23204
2.22131
165.756
-20.3332
-11.7275
-2.30272
0.989419
-11.2971
-11.0019
2.48477
-11.1925
3.35934
75.4136
-10.4801
-8.65983
1.91517
605.054
-10.2708
0.625917
-11.2291
140.304
180.576
390.459
-8.7299
3.31493
3.66376
0.148756
-4.16888
-0.10774
845.94
520.389
-24.2267
1.93613
-11.5832
-13.105
3.14862
-9.62612
-4.16079
-9.31999
2.39032
-62.6588
-20.1893
-21.5237
153.818
-7.54755
1.97608
4.58356
-10.9346
1.42363
-12.9278
-5.15753
-11.9946
650.805
-10.6265
0.981089
255.214
4.29365
-6.68936
547.478
-10.3854
-5.1297
-0.00781127
13.5215
4.03459
-13.2072
-2.63811
-12.0808
-10.4745
-9.10338
-15.1483
3.10395
-2.64752
-11.5488
2.75098
240.055
6.1092
-11.2088
7.94046
-21.6702
1.94176
-9.16926
552.919
381.556
-11.2362
587.266
-7.93366
-8.05581
-6.26137
-7.88343
0.128692
-4.06596
-8.04185
-5.9676
-13.035
3.61192
-7.58826
5.23563
-5.21348
778.475
844.155
9.93336
-9.15279
-4.48552
444.57
-18.3491
7.33693
12.9441
-10.937
-13.192
-5.20544
-8.65522
-2.53954
7.81097
7.697
6.83656
4.4824
2.54651
6.60647
-9.13654
1.88888
-1.57724
-6.40291
3.42003
9.80158
407.658
5.86126
-6.91709
3.50392
585.038
453.77
-13.4635
12.1944
-3.92659
-11.1413
-10.0673
-12.1748
-5.91199
-6.40722
-3.16832
2.98336
-1.15326
-5.65423
12.8608
-4.40192
4.59968
-21.8996
2.47326
6.28294
-1.17594
3.46923
-6.70281
-11.0511
-2.70033
-32.5844
-7.95453
6.06535
5.10058
-12.7613
0.083189
24.0079
5.52694
2.58484
3.53588
3.63365
-13.2518
612.503
-11.4891
7.83685
14.1509
-2.94735
9.29186
7.72114
-12.268
-12.6034
-12.7355
-5.68888
29.2917
-11.7577
28.8122
9.65983
-4.55706
1.47984
3.6357
22.1651
33.4936
32.9162
11.0163
2.57517
15.0805
4.13752
-12.3621
1.63698
5.47867
79.8015
83.3326
6.95905
-19.3588
30.3995
49.0033
61.1223
43.0696
11.5354
648.729
776.893
92.0933
840.793
91.924
841.429
9.78833
-2.09229
-5.75088
3.3188
6.30428
4.16692
2.34044
2.17186
-5.04598
3.4481
-3.54753
2.53502
-11.5564
21.397
8.03165
-7.84618
-12.2823
76.9503
102.969
103.432
43.018
40.327
13.8862
12.9245
-11.0445
38.4491
-20.5219
1.74514
-14.8559
-6.1064
591.675
692.49
246.745
17.1763
191.268
738.471
529.004
-15.6798
340.041
491.72
661.716
567.052
-32.6138
262.667
125.106
703.398
263.264
-15.3114
519.858
192.119
-16.6157
423.991
83.4939
-18.3541
223.932
523.845
439.079
529.402
531.171
529.014
531.627
529.134
531.008
58.8933
210.182
364.893
478.868
468.1
471.849
367.518
-16.9491
-13.9178
471.393
260.917
261.282
413.693
341.841
532.582
3.63652
-33.0784
169.708
732.106
679.632
469.26
613.671
588.049
616.305
587.142
587.27
587.688
835.337
731.763
52.9669
-17.0777
243.874
-40.0566
530.708
422.694
227.752
319.086
49.3467
423.835
-15.5993
327.168
3.96976
78.6632
405.003
84.3343
267.653
202.943
424.221
-88.5132
127.903
-16.1041
539.396
264.197
-100.243
314.698
266.045
418.402
27.3133
-15.4391
-104.572
401.099
235.828
886.656
-16.1315
-85.1906
180.48
-93.4646
-15.4122
355.077
-14.7777
-96.1545
31.5379
-13.7903
48.5811
77.903
131.945
407.932
-13.7911
835.923
883.986
-103.307
)
;

boundaryField
{
    patch0
    {
        type            calculated;
        value           nonuniform List<scalar> 
4010
(
2.84217e-14
2.84217e-14
-14.0927
-14.0927
-44.1449
-44.1449
-51.7177
-51.7177
-18.1615
-18.1615
-55.4414
-55.4414
-62.2383
-62.2383
-66.759
-66.759
-73.3199
-73.3199
-38.5025
-38.5025
-79.9658
-79.9658
-85.5928
-85.5928
-14.0526
-14.0526
-91.7762
-91.7762
-89.1543
-89.1543
-81.1968
-81.1968
-14.6398
-14.6398
-96.9059
-96.9059
-25.743
-25.743
-100.922
-100.922
-13.7978
-13.7978
-18.4404
-18.4404
-13.1811
-13.1811
-103.159
-103.159
-17.365
-17.365
-14.3474
-14.3474
-18.943
-18.943
-24.9591
-24.9591
-17.9427
-17.9427
32.5701
32.5701
-14.0355
-14.0355
-20.0806
-20.0806
-7.48771
-7.48771
-14.1771
-14.1771
-32.7592
-32.7592
-12.3583
-12.3583
-28.5222
-28.5222
-19.7166
-19.7166
39.7929
39.7929
-14.2399
-14.2399
-30.1139
-30.1139
-14.0116
-14.0116
-21.3648
-21.3648
-11.8071
-11.8071
-36.8795
-36.8795
-17.2782
-17.2782
-90.4546
-90.4546
-54.9149
-54.9149
231.048
231.048
54.7772
54.7772
82.9195
82.9195
-14.9034
-14.9034
-17.8309
-17.8309
172.984
172.984
-18.3709
-18.3709
-39.752
-39.752
-46.7425
-46.7425
-31.7271
-31.7271
-27.7895
-27.7895
-11.3024
-11.3024
-10.1048
-10.1048
-76.4221
-76.4221
-9.68035
-9.68035
52.5653
52.5653
244.686
244.686
-43.7266
-43.7266
-30.1502
-30.1502
-13.2981
-13.2981
-17.807
-17.807
18.3512
18.3512
-15.3312
-15.3312
-61.392
-61.392
51.852
51.852
20.8371
20.8371
11.1243
11.1243
-18.5541
-18.5541
-43.3878
-43.3878
-3.45393
-3.45393
-41.5379
-41.5379
-7.0215
-7.0215
-70.0091
-70.0091
-17.6032
-17.6032
6.9824
6.9824
-14.9401
-14.9401
7.68467
7.68467
-11.8267
-11.8267
-32.8419
-32.8419
-93.3485
-93.3485
168.302
168.302
-15.3705
-15.3705
-33.8997
-33.8997
-12.8266
-12.8266
-18.4001
-18.4001
-19.5548
-19.5548
-15.4963
-15.4963
328.003
328.003
-47.5805
-47.5805
-76.7487
-76.7487
-11.0297
-11.0297
-16.8547
-16.8547
-35.5106
-35.5106
-15.3802
-15.3802
-13.8924
-13.8924
-13.4107
-13.4107
-21.6001
-21.6001
-31.3946
-31.3946
-27.8249
-27.8249
-19.4696
-19.4696
-6.02564
-6.02564
-18.8955
-18.8955
-51.8641
-51.8641
-19.5036
-19.5036
-15.2099
-15.2099
29.0149
29.0149
-35.1192
-35.1192
-15.4498
-15.4498
-39.9322
-39.9322
-73.9619
-73.9619
-8.90586
-8.90586
-44.7551
-44.7551
37.0958
37.0958
738.554
738.554
26.1953
26.1953
-15.2431
-15.2431
-39.2528
-39.2528
-21.323
-21.323
-18.6624
-18.6624
-12.7919
-12.7919
-19.6001
-19.6001
746.676
746.676
-53.6064
-53.6064
-33.9583
-33.9583
-19.6143
-19.6143
20.2976
20.2976
-15.2507
-15.2507
-25.0924
-25.0924
-26.2261
-26.2261
-22.1452
-22.1452
-104.459
-104.459
-15.2698
-15.2698
-49.8408
-49.8408
-51.3301
-51.3301
-72.5269
-72.5269
-72.2725
7.50677
7.50677
21.5509
-44.2946
-44.2946
597.303
597.303
-20.8355
-20.8355
-16.7481
-16.7481
-1.30777
-1.30777
-7.37826
-7.37826
36.5336
36.5336
832.976
832.976
926.716
-18.0139
-18.0139
-38.2889
-38.2889
-50.7395
-50.7395
-21.7794
-21.7794
741.058
741.058
-31.6918
-31.6918
-60.7306
-60.7306
-94.7974
-94.7974
26.7945
26.7945
-19.1603
-19.1603
-43.4579
-43.4579
737.665
737.665
61.302
61.302
-25.475
-25.475
-25.6004
-25.6004
788.887
788.887
-44.4109
-44.4109
-22.9083
-22.9083
-18.0263
-18.0263
-56.4652
-56.4652
-31.0734
-31.0734
-8.758
-8.758
-39.6091
-39.6091
-20.105
-20.105
36.4942
36.4942
-14.4429
-14.4429
-10.8424
-10.8424
-48.6985
-48.6985
-22.3895
-22.3895
-72.9958
-72.9958
-9.76869
-9.76869
-28.0611
-28.0611
372.052
372.052
-47.8628
-47.8628
-18.61
-18.61
-25.8261
-25.8261
-49.1194
-49.1194
7.95478
7.95478
-20.2737
-20.2737
-63.9523
-63.9523
-62.6595
-62.6595
-55.8467
-55.8467
-30.8936
-30.8936
831.461
831.461
925.201
-28.1563
-28.1563
-20.4396
-20.4396
-20.9255
-20.9255
-19.5979
-19.5979
24.1874
24.1874
-20.6618
-20.6618
-29.7738
-29.7738
-70.2869
-70.2869
-19.3545
-19.3545
-23.8482
-23.8482
-60.8988
-60.8988
-17.5468
-17.5468
-16.8272
-16.8272
-15.1507
-15.1507
-14.9163
735.562
735.562
-28.2188
-28.2188
-104.06
-104.06
-32.0814
-32.0814
-26.7875
-26.7875
-24.008
-24.008
0.571012
0.571012
-20.6345
-20.6345
-68.7129
-68.7129
-13.4297
-13.4297
-20.5413
-20.5413
-24.0136
-24.0136
-27.5785
-27.5785
-102.121
-102.121
-79.3519
-79.3519
-28.2231
-28.2231
-70.2239
-70.2239
-44.3605
-44.3605
-37.7832
-37.7832
-20.4927
-20.4927
-18.8469
-18.8469
-16.9958
-16.9958
-21.9705
-21.9705
-14.1772
-14.1772
-29.9249
-29.9249
36.0244
36.0244
36.1419
-103.039
-103.039
-74.3717
-74.3717
-34.1146
-34.1146
829.435
829.435
923.176
-57.6982
-57.6982
-24.2239
-24.2239
-103.628
-103.628
-18.0572
-18.0572
-96.7952
-96.7952
-16.3329
-16.3329
-84.9927
-84.9927
-48.0621
-48.0621
-13.2503
-13.2503
-37.9012
-37.9012
-45.0451
-45.0451
760.699
760.699
-37.4011
-37.4011
-31.7623
-31.7623
-48.5809
-48.5809
-99.1495
-99.1495
-9.84875
-9.84875
-25.8636
-25.8636
-22.0971
-22.0971
-82.2732
-82.2732
-24.6874
-24.6874
-35.8609
-35.8609
-4.77066
-4.77066
-25.4689
-25.4689
-16.9092
-16.9092
11.6941
11.6941
-16.9867
-16.9867
-25.2917
-25.2917
-18.9261
-18.9261
-70.8551
-70.8551
-18.6533
-18.6533
45.1642
45.1642
-18.1405
-18.1405
-30.9237
-30.9237
-12.9487
-12.9487
-72.7797
-72.7797
-90.9931
-90.9931
-28.7157
-28.7157
-37.0843
-37.0843
-21.3719
-21.3719
53.7863
53.7863
857.577
857.577
924.365
-28.6909
-28.6909
-43.8058
-43.8058
51.6874
51.6874
6.70922
6.70922
-72.7513
-72.7513
764.535
764.535
-85.8184
-85.8184
-25.9249
-25.9249
-43.9239
-43.9239
34.8271
34.8271
-28.5297
-28.5297
-98.8593
-98.8593
4.10756
4.10756
57.7457
57.7457
-97.467
-97.467
-16.7185
-16.7185
-19.6847
-19.6847
-96.6824
-96.6824
831.924
831.924
921.703
-37.5126
-37.5126
-101.412
-101.412
0.368278
0.368278
-94.0342
-94.0342
-33.2396
-33.2396
-12.4815
-12.4815
-100.832
-100.832
-29.2139
-29.2139
-23.3207
-23.3207
-16.3955
-16.3955
-3.58329
-3.58329
-39.7808
-39.7808
-16.5552
-16.5552
-56.3344
-56.3344
-12.3124
-12.3124
-24.6737
-24.6737
-91.4563
-91.4563
-42.5283
-42.5283
-27.2688
-27.2688
21.2431
21.2431
-19.4938
-19.4938
-45.2804
-45.2804
52.4245
52.4245
-24.3
-24.3
-55.3401
-55.3401
-28.0433
-28.0433
-32.7757
-32.7757
-50.0338
-50.0338
-82.5257
-82.5257
-23.2472
-23.2472
-20.2946
-20.2946
-16.1551
-16.1551
-99.144
-99.144
-6.17307
-6.17307
-24.4648
-24.4648
-12.6058
-12.6058
-52.1702
-52.1702
-49.347
-49.347
-48.0117
-48.0117
-48.6621
-48.6621
37.3723
37.3723
-15.4787
-15.4787
-16.9105
-16.9105
-93.1755
-93.1755
-55.133
-55.133
-17.9472
-17.9472
-32.6082
-32.6082
-1.88999
-1.88999
-33.254
-33.254
-15.9496
-15.9496
-71.9563
-71.9563
78.6671
78.6671
-94.5118
-94.5118
-15.5846
-15.5846
-35.7807
-35.7807
574.269
574.269
-91.9806
-91.9806
-25.5761
-25.5761
373.976
373.976
-25.1397
-25.1397
-90.6298
-90.6298
-96.9882
-96.9882
-15.0081
-15.0081
-14.8498
-14.8498
-56.257
-56.257
-15.4431
-15.4431
-17.8295
-17.8295
-44.9808
-44.9808
-50.6553
-50.6553
-96.5273
-96.5273
-28.5043
-28.5043
-30.4544
-30.4544
-53.1727
-53.1727
-8.65501
-8.65501
-13.8835
-13.8835
-89.1288
-89.1288
-89.1392
-89.1392
-13.0347
-13.0347
-34.2391
-34.2391
-41.7269
-41.7269
-29.8326
-29.8326
-30.1946
-30.1946
-31.2568
-31.2568
-22.2641
-22.2641
-95.7578
-95.7578
2.57191
2.57191
-15.8956
-15.8956
-10.4122
-10.4122
-57.9472
-57.9472
89.2477
89.2477
-15.4768
-15.4768
-29.2418
-29.2418
-17.3558
-17.3558
-60.2247
-60.2247
-20.1552
-20.1552
-20.1007
-9.24114
-9.24114
-13.408
-13.408
-84.167
-84.167
-62.2436
-62.2436
530.765
530.765
-19.8944
-19.8944
-15.6653
-15.6653
-19.9807
-19.9807
881.305
881.305
929.675
-6.61387
-6.61387
-85.4203
-85.4203
-20.1351
-20.1351
-25.1084
-25.1084
-10.8618
-10.8618
-19.7758
-19.7758
-15.1611
-15.1611
-96.0904
-96.0904
-67.0054
-67.0054
-52.3428
-52.3428
0.422018
0.422018
-64.9399
-64.9399
-85.9666
-85.9666
-9.71493
-9.71493
-54.0918
-54.0918
-86.6646
-86.6646
-18.8982
-18.8982
-81.0189
-81.0189
-15.4989
-15.4989
-11.1446
-11.1446
-91.297
-91.297
-56.9932
-56.9932
42.0209
42.0209
-14.1421
-14.1421
-4.84219
-4.84219
-7.89547
-7.89547
-58.9851
-58.9851
-5.37561
-5.37561
-12.9825
-12.9825
-57.1193
-57.1193
-4.65797
-4.65797
-92.7358
-92.7358
26.4197
26.4197
-70.3652
-70.3652
-10.7836
-10.7836
-23.5443
-23.5443
-5.67019
-5.67019
-31.2748
-31.2748
67.267
67.267
-21.705
-21.705
-348.184
-348.184
-348.024
-21.654
-21.654
-13.8394
-13.8394
-29.4066
-29.4066
-6.62244
-6.62244
-81.3158
-81.3158
-14.2552
-14.2552
-34.1487
-34.1487
-94.0831
-94.0831
-6.66738
-6.66738
-27.3013
-27.3013
-90.4464
-90.4464
-82.3063
-82.3063
-9.73449
-9.73449
-37.2507
-37.2507
-45.3527
-45.3527
-11.8758
-11.8758
-12.106
-12.106
-7.95258
-7.95258
-15.8533
-15.8533
-7.29692
-7.29692
-9.71776
-9.71776
-46.4829
-46.4829
-79.6052
-79.6052
-29.0202
-29.0202
-8.09944
-8.09944
-14.2707
-14.2707
18.3262
18.3262
-86.5789
-86.5789
-16.5976
-16.5976
-39.7803
-39.7803
55.5403
55.5403
-92.5949
-92.5949
-22.6395
-22.6395
-49.5306
-49.5306
-16.9021
-16.9021
-66.3736
-66.3736
-1.82392
-1.82392
-10.9791
-10.9791
-12.1293
-12.1293
-9.18885
-9.18885
-1.66981
-1.66981
-38.7544
-38.7544
-2.08083
-2.08083
-65.887
-65.887
9.81321
9.81321
-1.7268
-1.7268
-14.1406
-14.1406
-58.0171
-58.0171
-80.0398
-80.0398
-75.4279
-75.4279
-28.9947
-28.9947
-1.87156
-1.87156
-2.9298
-2.9298
49.4873
49.4873
-80.5928
-80.5928
-78.5986
-78.5986
-20.555
-20.555
-9.15212
-9.15212
-15.0804
-15.0804
0.23956
0.23956
-79.0063
-79.0063
-4.6412
-4.6412
-13.1311
-13.1311
-86.0917
-86.0917
-28.5943
-28.5943
-67.2202
-67.2202
-2.04062
-2.04062
-33.675
-33.675
-2.45708
-2.45708
-3.26064
-3.26064
-9.68779
-9.68779
-24.3133
-24.3133
-79.3364
-79.3364
-41.0591
-41.0591
-9.97603
-9.97603
-77.3601
-77.3601
-53.9527
-53.9527
-85.3819
-85.3819
-37.7918
-37.7918
-22.2296
-22.2296
-0.0988128
-0.0988128
-10.1491
-10.1491
-6.13887
-6.13887
-50.8687
-50.8687
-7.18568
-7.18568
-94.6134
-94.6134
-13.32
-13.32
-8.45281
-8.45281
-14.7098
-14.7098
-5.16871
-5.16871
-62.2713
-62.2713
-16.6376
-16.6376
-13.0063
-13.0063
-7.39386
-7.39386
-10.727
-10.727
56.8656
56.8656
-5.91111
-5.91111
-23.9847
-23.9847
-80.287
-80.287
-0.316023
-0.316023
40.2596
40.2596
61.9582
61.9582
-13.0287
-13.0287
-92.738
-92.738
-1.50835
-1.50835
0.13814
0.13814
-47.5459
-47.5459
-13.3511
-13.3511
-1.56978
-1.56978
-7.56894
-7.56894
-11.1137
-11.1137
81.1099
81.1099
60.9655
60.9655
53.0282
53.0282
-8.0595
-8.0595
-7.50183
-7.50183
-19.659
-19.659
-0.123127
-0.123127
-21.3572
-21.3572
-11.5135
-11.5135
-47.9455
-47.9455
-63.8594
-63.8594
28.4939
28.4939
-11.1407
-11.1407
-73.2149
-73.2149
-0.126477
-0.126477
-2.12498
-2.12498
-0.269543
-0.269543
-15.6317
-15.6317
-0.793902
-0.793902
-7.54388
-7.54388
-15.3346
-15.3346
-70.822
-70.822
-6.70628
-6.70628
-8.52481
-8.52481
-24.6836
-24.6836
-84.8602
-84.8602
-0.463627
-0.463627
249.502
249.502
-13.9181
-13.9181
-69.5912
-69.5912
-0.505255
-0.505255
-60.8539
-60.8539
40.1684
40.1684
-5.05403
-5.05403
-11.531
-11.531
-36.3791
-36.3791
111.133
111.133
38.4875
38.4875
-72.4721
-72.4721
-1.49734
-1.49734
-47.5895
-47.5895
-5.8843
-5.8843
-6.73318
-6.73318
384.929
384.929
-71.4368
-71.4368
-44.1244
-44.1244
76.8747
76.8747
-12.0328
-12.0328
-90.7284
-90.7284
-18.7495
-18.7495
-37.4832
-37.4832
-13.3377
-13.3377
1.19856
1.19856
-5.50322
-5.50322
-67.0834
-67.0834
-5.62178
-5.62178
-66.4272
-66.4272
-8.94085
-8.94085
-13.0362
-13.0362
-33.2415
-33.2415
-14.2324
-14.2324
304.898
304.898
64.5075
64.5075
-74.2746
-74.2746
-54.5012
-54.5012
-68.8816
-68.8816
-7.02706
-7.02706
-67.6965
-67.6965
8.26518
8.26518
-9.26126
-9.26126
-19.1357
-19.1357
-16.1577
-16.1577
-4.74093
-4.74093
-33.4737
-33.4737
-0.916885
-0.916885
-49.2821
-49.2821
-6.16803
-6.16803
-11.6862
-11.6862
365.291
365.291
-1.18977
-1.18977
90.9406
90.9406
-0.264113
-0.264113
-72.485
-72.485
0.503048
0.503048
1.14468
1.14468
-9.66943
-9.66943
-1.38045
-1.38045
0.223797
0.223797
-65.7266
-65.7266
-7.49612
-7.49612
-35.7713
-35.7713
0.0543078
0.0543078
-18.4554
-18.4554
-6.92788
-6.92788
0.645739
0.645739
-29.6848
-29.6848
-38.8497
-38.8497
-6.65617
-6.65617
0.708935
0.708935
-6.28092
-6.28092
-32.7302
-32.7302
-2.87183
-2.87183
-3.60155
-3.60155
-10.0977
-10.0977
6.49887
6.49887
-10.1386
-10.1386
-63.4316
-63.4316
0.416162
0.416162
70.8551
70.8551
-3.16179
-3.16179
-27.256
-27.256
-8.77353
-8.77353
-9.97431
-9.97431
-7.73284
-7.73284
-44.4526
-44.4526
-3.70264
-3.70264
-75.7496
-75.7496
-58.6054
-58.6054
-57.8451
-57.8451
-82.1316
-82.1316
-37.4358
-37.4358
62.9485
62.9485
-4.25272
-4.25272
-58.1462
-58.1462
-59.945
-59.945
-6.62799
-6.62799
-1.87858
-1.87858
-4.21148
-4.21148
-61.2448
-61.2448
0.736995
0.736995
156.783
156.783
-59.5428
-59.5428
-2.91048
-2.91048
42.1885
42.1885
-45.6128
-45.6128
-74.2354
-74.2354
-0.861664
-0.861664
-6.47946
-6.47946
-59.2398
-59.2398
-3.17372
-3.17372
-23.4188
-23.4188
-7.93846
-7.93846
-6.42534
-6.42534
-49.4011
-49.4011
-5.34941
-5.34941
-0.392356
-0.392356
-14.727
-14.727
97.8708
97.8708
-0.157105
-0.157105