/*--------------------------------*- C++ -*----------------------------------*\
  =========                 |
  \\      /  F ield         | OpenFOAM: The Open Source CFD Toolbox
   \\    /   O peration     | Website:  https://openfoam.org
    \\  /    A nd           | Version:  8
     \\/     M anipulation  |
\*---------------------------------------------------------------------------*/
FoamFile
{
    version     2.0;
    format      ascii;
    class       volScalarField;
    location    "0.8";
    object      p_rgh;
}
// * * * * * * * * * * * * * * * * * * * * * * * * * * * * * * * * * * * * * //

dimensions      [1 -1 -2 0 0 0 0];

internalField   nonuniform List<scalar> 
1924
(
152.92
-12.4511
-42.0089
-49.5193
-16.4609
-53.1312
-59.8074
-63.483
-69.9765
-36.4624
-76.7305
-82.985
-12.2791
-89.0545
-84.2735
-76.4993
-11.5412
-94.1093
296.345
-98.017
40.2818
-16.2733
-11.0638
-100.187
-15.1375
-9.40145
-12.68
-18.1213
-16.1373
34.3006
-12.7519
-17.2507
301.186
-10.386
-29.1454
0.0835572
-22.7333
-16.6311
41.7167
-12.9528
-24.0439
-3.49986
-16.548
-3.0125
-35.1159
-14.9889
-72.5793
-52.9677
894.032
849.288
683.759
-13.6114
-15.7515
711.518
-16.6778
-37.7728
198.405
-29.8743
-25.9266
-4.69522
0.485509
-71.4997
-4.71458
54.031
688.402
-41.6909
-24.7843
-11.1614
-15.9428
355.047
-6.33582
-55.3363
53.4034
23.8852
14.6806
-16.5768
-41.1216
0.272324
-39.6005
-2.52983
-67.294
-11.8112
8.62136
-13.7205
704.395
-6.23712
-30.9845
-88.7659
897.695
-9.60946
-29.8814
-5.85889
-16.6488
-15.8318
-14.0753
691.076
-45.3506
-73.6988
-6.05901
-15.0029
-33.3619
-14.0313
-10.1923
-7.38448
-19.5664
-28.8191
-24.5705
-17.5767
0.522317
-14.1106
-48.9672
-15.8623
-10.7935
30.6504
-33.0497
-14.2813
-37.7467
-69.0476
3.71931
-41.0507
733.685
926.034
775.509
-10.4036
-34.8708
-18.3637
-14.3848
-9.34664
-14.5456
919.912
-50.6295
-31.7705
-15.6928
21.9931
-13.8549
-20.1728
-21.8365
-17.6399
-101.391
-10.6665
-47.877
-47.1149
-60.8554
651.742
-42.001
920.959
-18.8873
-13.0997
3.40048
-0.657431
38.0803
926.716
-12.7692
-36.0003
-48.3792
-16.4964
928.538
-27.7723
-58.3147
-88.6326
28.491
-17.5566
-41.1222
925.146
65.1263
-20.3822
-20.0071
930.997
-40.5776
-17.5934
-16.3792
-53.9288
-27.9949
-1.45918
-37.5808
-18.277
38.1342
3.37362
10.4538
-46.2386
-19.2298
-66.9468
-6.21776
-22.3317
937.807
-27.071
-13.1894
-20.5642
-46.3632
9.76246
-18.3679
-60.6014
-60.2533
-53.3315
-26.5733
925.201
-22.4769
-18.5561
-18.8505
-17.7693
660.612
-7.94421
-24.4422
-66.6556
-17.6539
-21.577
-57.7202
-12.2587
-13.86
-3.45085
923.042
-22.754
-100.097
-26.2468
-23.026
-21.5644
6.30442
-18.7088
-64.9965
-10.8742
-17.7704
-22.1971
-21.9195
-98.3746
-75.6506
-22.4221
-67.7324
-41.0406
-33.715
-18.6079
-17.2483
-13.0498
-19.9094
-3.19313
-23.8516
41.8899
-98.3419
-70.4903
-29.844
923.176
-50.8106
-22.0104
-99.359
-12.5897
-91.5246
-14.7842
-81.2864
-45.9246
-9.57574
-34.647
-41.6838
921.227
-34.5782
-28.9566
-46.2778
-95.352
-6.40412
-22.9668
-19.967
-78.3067
-19.5983
-33.2854
2.57617
-23.0165
-14.3758
15.3154
-15.5606
-22.2123
-17.2285
-21.2338
-16.7546
46.7511
-15.0178
-27.9411
-8.7854
-69.9707
-88.0726
-22.5627
-34.6903
-19.3687
502.124
924.365
-24.1647
-40.907
722.083
9.39528
-70.1692
921.102
-81.6895
-23.6525
-41.3326
38.0418
-22.1069
-93.4937
217.71
67.1871
-93.6122
-11.4365
-17.1803
-92.7972
921.703
-35.0967
-96.0846
11.0208
-91.1155
-30.3549
-11.0414
-95.611
-26.7916
-21.5507
-14.1609
19.0021
-36.7582
-14.5126
-53.9501
-10.7814
-19.2234
-87.7471
-39.8219
-21.5305
24.7243
-15.8
-42.7857
54.3247
-19.4204
-52.7175
-25.6527
-27.483
-47.8374
-79.8406
-20.9295
-14.6291
-14.1524
-96.1638
-2.22891
-17.9044
-5.84616
-49.3436
-46.1589
-45.4207
-46.104
39.0283
-13.2434
-13.0796
-89.1554
-48.8021
6.65349
-27.9991
32.3696
-28.1178
2.06751
-59.6037
90.6006
-88.874
-13.718
-32.909
923.837
-87.8523
-23.3994
439.315
-18.3478
-86.5843
-91.4507
-10.4412
-2.20862
-53.5829
-13.2767
-14.027
-41.7104
-47.7334
-92.7255
-22.6355
-24.8628
-44.5627
-2.7399
-3.83545
-85.0237
-84.8502
-10.6087
-29.487
-35.997
-26.5973
-27.7323
-25.5447
-18.4148
-92.032
6.44546
-10.2261
-6.81617
-55.1435
93.5901
-12.5462
-26.0323
-11.4725
-56.7218
-17.9176
-3.93623
-11.0472
-80.5211
-55.821
918.195
-17.4768
-14.101
-18.2258
929.675
0.354802
-82.416
-14.619
-22.6634
8.37996
-14.9456
-13.038
-92.9267
-63.4073
-48.9293
11.2212
-62.1289
-81.8476
-0.57691
-51.3684
-82.152
-15.1143
-78.085
-12.5023
-7.5058
-85.6592
-54.152
43.7524
-11.914
0.317849
-3.10777
-56.2383
-0.451118
-6.70875
-53.8654
-0.372618
-87.7376
662.432
-66.2842
-8.22943
-19.8892
-1.87902
-25.4848
82.0171
-16.7962
-341.65
-17.9401
-11.0797
-26.4757
-0.740437
-76.4788
-12.0686
-30.5034
-89.4768
10.0488
-22.9871
-86.2573
-78.0399
0.18149
-31.6178
-42.7376
-9.4565
-6.343
-6.2687
-14.161
-1.31683
-5.05289
-42.9883
-75.4021
-27.184
13.247
-12.0806
21.9377
-83.4055
-14.7338
-37.2291
57.0435
-89.2973
-17.0626
-43.6647
-13.1464
-62.0258
2.90647
-6.00305
-9.7616
1.04389
7.88714
-33.4551
1.99024
-62.857
354.508
2.26589
-12.019
-55.221
-74.1107
-72.422
-23.2485
3.01123
10.8067
52.4479
-74.7469
-74.1654
-18.2985
-6.54143
-13.7004
9.04352
-74.7366
18.1607
-10.7323
-80.7921
-25.6103
-64.2834
2.92617
-27.7225
3.1943
1.36144
-7.14111
-20.1674
-74.9765
-35.3277
0.467983
-71.2001
-51.1462
-80.1882
-34.3972
-17.617
3.86231
0.144806
16.1779
-47.211
-5.50472
-91.091
-10.993
-3.02315
-13.1464
0.952511
-58.4032
-14.7602
-4.19198
-3.99785
-8.20719
58.3043
48.5183
-21.4602
-75.5305
5.97377
42.6346
63.425
-6.86878
-87.9849
7.4859
5.00906
-42.3466
-5.56178
3.85696
-1.84311
0.349985
614.633
69.0698
54.6028
-5.17321
1.76862
-17.6455
5.02042
-19.2982
-7.69734
-45.203
-61.0844
31.9765
-8.60677
-69.6611
5.42495
15.07
7.09358
-12.2073
3.63253
13.9422
-13.8829
-65.5603
3.34981
-5.91411
-19.7103
-80.4031
5.68658
662.162
77.62
-64.2332
30.4188
-57.8532
42.2872
15.4895
-0.366707
302.044
568.811
575.783
-66.9884
4.65581
-44.4601
0.389304
-5.11685
392.508
-65.38
-40.3692
80.0998
-8.43109
-86.1338
-15.2828
-34.8346
-10.1072
31.0683
-0.428035
-58.3473
10.0011
-63.3117
-6.39298
-7.59235
-27.9011
-12.6156
498.773
65.9511
-68.9753
-51.5664
-65.5724
-1.5482
-63.0821
11.9605
-0.370375
-14.1014
-12.6539
2.64304
-27.2071
2.86084
-46.0141
13.6637
-4.02359
373.261
2.19443
104.88
5.28444
-67.3141
9.88485
12.2674
-7.19073
17.0655
4.29297
-57.1189
-4.65269
-28.7251
5.71396
-16.4424
-2.49201
11.8035
-26.5606
-33.486
2.72205
6.15784
-4.59995
-30.1784
12.1669
21.5851
0.252735
229.959
-5.9421
-59.9782
4.69211
73.248
0.895486
-20.2304
-0.0544923
-7.55001
-5.12047
-41.6461
33.061
-72.5369
-49.3074
-54.7026
-77.5284
-32.1261
252.698
1.52619
-54.4021
-55.5949
-1.53288
4.57425
13.8741
-56.6504
7.18663
833.07
-55.0289
193.053
43.7162
-41.6831
-71.7452
2.58766
-4.66838
-50.465
2.92334
-20.9945
-5.38026
7.85513
-46.3971
-0.0908919
3.23704
-13.3323
189.627
3.53828
11.5903
3.24438
-55.0471
-1.55696
-5.27097
150.108
12.1931
909.044
1.52186
-10.2313
12.0617
-4.18806
-46.0789
719.602
-17.9422
-9.91741
-37.0715
1.72249
-26.9792
223.424
2.87057
217.371
-12.8626
-53.9767
7.56442
24.5441
83.5624
-1.00827
3.19039
2.06353
6.63981
8.78321
-1.60019
-3.80867
87.3626
5.96226
-42.1381
564.526
-79.3661
83.5098
-5.69056
2.0345
-0.964219
-50.5243
19.5991
4.52693
-81.9499
118.864
82.3738
-24.1042
48.6429
116.794
913.643
-5.13802
20.4212
5.79588
-15.8898
-47.134
17.1455
5.38319
3.29647
-3.54602
271.354
3.70067
-13.3874
3.16602
193.14
9.17373
-12.9998
-44.928
-3.13104
2.29464
54.5396
9.12337
29.1221
-29.2793
-61.053
-18.292
-100.89
3.79626
-28.3799
3.88348
-38.0187
56.3288
12.4348
-2.98778
-42.4292
7.32029
-1.71978
-43.6664
-44.2002
770.294
5.41223
-3.78383
-5.04695
-12.8213
1.90311
66.1424
-35.4777
-31.4857
116.441
-8.98029
6.36218
-3.77441
-0.816038
-44.2148
66.2466
499.715
-4.97205
4.7202
0.250406
141.858
1.62646
1.76657
-3.22129
-27.8726
-28.4532
284.545
6.90635
-42.4764
-1.92364
4.47981
6.3716
6.6655
-18.3768
-39.2061
-4.62101
3.19622
18.8671
2.81324
-25.3525
2.38918
-41.5516
923.357
-84.8645
465.015
4.57049
2.41809
933.84
-3.11891
4.17498
17.1953
-2.30537
-3.38255
-74.302
6.42049
8.01051
-31.7905
-13.1229
4.83986
-3.43094
-3.65174
84.8461
-17.8166
4.71433
-24.5317
5.3651
25.435
30.1038
6.16934
85.0667
2.17508
9.226
21.437
-39.7468
-4.74219
25.1062
-51.4557
-2.16728
42.6995
-36.2155
23.8793
908.412
4.3302
95.729
-4.54411
1.10959
5.52007
4.55778
1.71687
6.32069
-92.2702
6.53455
5.48148
-1.14097
-38.3561
536.46
-10.1646
-33.3913
-34.625
-37.5446
-6.00848
-0.0173608
-20.0936
8.64228
6.46081
-3.79958
87.5233
3.10502
11.4001
-23.5311
281.708
4.73196
-20.5459
4.41154
60.6803
-36.6063
649.534
81.4677
6.49079
214.263
2.88512
-2.35195
-25.8207
-13.8943
-17.9312
14.3197
906.562
-35.3084
10.278
-36.2894
-21.4562
-76.5711
5.1174
-1.17121
-3.24863
2.44516
-3.30456
5.39262
-12.7971
1.42379
-4.4111
5.18934
6.60529
-31.5909
741.534
-35.6128
743.66
374.439
4.70185
0.0111795
5.60506
11.3022
-10.9027
-0.515932
2.22059
92.907
-4.53844
5.80849
501.061
48.0774
-4.85586
10.6473
0.127017
327.886
-35.0914
-3.83927
-96.9542
84.0121
6.0262
-13.706
18.7063
3.92941
81.5444
-35.2432
-3.04545
-22.5665
3.51645
-12.8221
85.9597
4.7148
5.14962
6.16626
-17.6742
-7.65633
5.29153
13.9589
-2.05823
3.10851
6.80767
17.9816
144.641
143.598
-5.14535
-15.1366
6.1118
-34.2396
-0.967373
-4.77233
-28.6434
0.26003
4.65496
2.42454
11.6215
3.10996
93.6786
-0.794216
-0.20356
-3.94341
-12.4296
-13.4139
-94.8716
-27.8278
141.794
0.339385
22.3086
-4.58845
4.87377
-29.2465
-30.0557
4.9854
4.80329
-3.0925
8.17986
-18.1605
-11.1661
-22.8428
882.471
-33.7524
-35.1491
5.34619
-2.23711
6.43138
-6.32999
49.333
257.017
17.1763
-30.0068
5.72446
76.6369
85.2002
-1.14009
-99.7541
73.072
19.9204
54.6685
-11.7759
-93.9385
6.82829
-2.67339
3.75481
-30.6693
4.92527
4.19153
5.25271
0.144436
-11.1631
13.1687
5.8153
-57.7128
-98.1118
3.72406
-9.08696
6.49573
-5.11313
4.8682
53.2346
-4.35349
135.299
14.3094
-34.0097
-12.2986
4.79123
-31.3426
241.66
-7.37364
185.946
1.36391
-1.98149
4.6854
5.59293
198.399
-0.316786
-2.05999
5.53184
27.3358
4.80773
-0.360141
1065.51
27.8192
1.66043
-36.131
4.7549
-6.19022
4.79954
0.411355
2.23091
6.37708
46.8033
10.7857
4.74909
-11.5019
-55.7558
5.64976
40.1892
-4.59764
2.85282
1.90113
19.2886
4.39351
545.584
41.1173
4.70733
5.01717
4.24043
37.8246
6.1162
545.325
503.965
-95.9348
24.212
1.90184
-17.5114
-2.31374
3.99261
4.80874
48.2354
-2.67026
-20.3351
-23.8722
-16.6865
4.68946
0.154469
-25.4638
-40.1519
0.70983
6.66102
-8.74626
1.64872
-3.59938
3.88264
-24.9375
-25.5467
419.007
0.119825
-1.70119
460.738
352.521
54.0707
3.77662
-17.4165
4.98448
2.63943
66.397
1048.64
4.56326
-26.55
-7.68833
3.25759
-10.6376
-13.8837
15.4817
6.03474
96.9479
4.7067
4.80341
379.726
-21.0069
8.64585
449.668
253.946
4.5982
-22.8127
3.80581
-10.5324
1.42542
55.1455
61.9701
-93.9656
4.53485
4.3015
164.42
-4.68013
5.78989
6.37452
77.3285
-4.86503
2.63007
4.89471
-4.29721
209.447
2.43464
4.93833
4.85299
-23.6382
-3.37388
4.84374
174.961
111.904
0.590885
913.433
4.33632
-1.77031
49.3075
6.0895
-8.7781
4.0043
-3.60299
4.7345
-0.954477
3.78
904.798
-20.4485
3.06269
-0.0337149
-9.83905
66.6996
-3.88603
-14.6057
752.601
-1.56547
3.20852
-16.61
899.375
851.461
5.03364
3.58599
1.48053
298.207
-7.91905
24.345
88.0916
512.182
-21.1822
-18.7955
3.32413
5.01656
-13.4129
1.42841
3.96856
-0.662604
-3.69236
4.87636
-2.95729
-5.67398
4.90674
3.50277
463.319
502.949
-6.16455
2.26218
4.41341
-1.85126
85.7753
4.77564
-0.442044
4.47189
-0.548976
6.24843
162.189
-21.3988
817.258
915.843
4.09833
5.73834
0.74052
321.148
899.191
2.86738
305.263
78.6088
2.51749
-1.79363
-11.7209
5.70499
-22.4656
282.307
781.921
-25.6019
4.57527
-5.41162
5.53553
-0.908424
139.201
644.461
5.46547
4.28772
411.166
4.96449
-25.4556
5.30863
-3.60055
3.30683
4.27794
5.49229
3.39196
5.71831
908.195
3.1536
275.405
1.3814
-2.80878
5.13358
2.53759
34.4659
5.32792
7.72166
911.848
-8.38573
5.84105
-28.2061
5.89848
17.0903
-6.68887
-0.753314
-37.3362
23.5808
771.944
4.05963
-12.8572
-16.3652
706.381
4.73787
2.6324
564.11
2.32019
9.49645
5.507
3.57221
4.81032
55.4217
4.72807
-11.4284
815.541
3.53019
-7.77662
218.143
4.55824
5.23553
38.0384
-15.9601
79.5502
-6.58464
-39.7402
-9.0659
907.157
-0.279211
7.69441
312.709
3.84904
17.6402
206.283
4.59959
3.50407
0.137639
-9.47795
665.13
-15.6199
44.7388
-2.36081
14.5934
974.508
734.308
515.939
904.962
29.2997
534.856
5.56711
-5.13841
6.13074
13.3395
-4.50951
3.23057
319.502
5.31108
88.5753
82.2636
-6.167
-1.94588
906.045
-20.8349
6.07333
857.452
5.16302
526.832
652.829
504.365
1.35584
522.976
905.509
913.32
486.901
-7.7818
912.763
13.1509
9.81559
176.299
579.304
12.0277
277.817
-18.0834
967.15
395.03
4.24574
907.23
44.4001
8.67756
919.213
-19.8503
527.794
5.58944
409.506
1.12615
5.65219
4.00008
9.25501
-0.411227
1.59303
-14.0261
4.60477
566.103
1.62076
710.441
3.52613
-10.8261
5.11156
410.072
-17.571
416.204
908.008
584.704
-7.0053
-9.12789
4.24455
4.40786
5.31586
738.141
7.00905
0.672429
-25.045
-11.6607
-4.34666
742.745
11.5858
-20.8886
7.21143
-2.52083
-3.44081
2.96339
932.552
5.75764
6.12602
1114.54
-1.18825
-7.29719
-27.0522
2.62034
-8.79697
-5.82155
646.584
0.394509
6.14358
5.92315
1003.58
5.28496
5.57377
3.07584
2.08478
172.079
5.92116
-23.096
6.31022
-6.56877
5.05997
-1.53563
903.001
-6.14786
904.582
-6.42283
791.511
-2.0369
915.348
41.8938
54.559
3.85195
9.91841
910.072
6.09863
2.10707
905.101
550.422
519.905
787.568
4.45193
-7.51343
-7.95264
903.548
-8.37177
-6.95279
901.189
-0.586482
587.284
5.22747
6.57169
3.57769
5.79836
10.5981
617.079
-16.1613
695.18
4.17146
6.608
-11.375
7.37527
909.344
626.326
-4.65334
637.488
567.501
1.82141
535.087
5.26058
-6.58382
563.027
-0.964668
36.2628
615.251
6.07706
-5.75443
751.381
348.002
513.735
6.67215
-14.1745
5.60767
-5.42906
5.06843
7.08836
-3.73694
337.588
858.772
853.528
595.738
6.34089
-3.43282
4.74438
27.0686
7.2441
907.196
25.0944
7.70926
5.45117
31.5094
709.282
581.71
909.057
644.979
24.5801
0.489804
551.829
-5.24407
7.99757
10.4903
-5.21947
8.0345
983.601
1223.59
-1.8703
4.72852
1079.73
-6.64035
127.437
11.1644
11.8182
912.616
-8.13838
54.476
48.5242
611.192
-16.0662
-6.69472
6.52828
6.32031
-5.87922
-2.61101
7.04078
-6.34957
8.28484
970.1
-4.73447
-3.94852
7.22497
841.957
-5.62317
688.124
-6.32309
871.817
181.513
899.707
-4.01859
8.20434
15.4947
5.6193
60.8402
7.5369
909.596
614.559
-1.29922
13.885
-6.55131
-7.87394
8.31819
-4.91455
2.92197
21.689
6.88223
-40.6539
2.56735
-17.4489
880.742
-1.93205
6.73223
9.67891
-6.28436
5.93292
-7.56215
0.403262
-6.53789
905.456
-5.20348
693.629
731.629
9.32879
26.8849
594.562
-5.35286
3.72322
10.0153
48.9221
9.90886
34.4235
9.5195
-6.98562
-5.5001
26.7861
6.64579
7.78819
32.0633
-6.44983
9.37558
876.184
11.3318
-5.68861
19.2124
3.80319
6.30645
-3.34974
798.071
714.701
-6.14132
905.573
-2.25255
-2.08543
-1.42273
-3.04446
7.24331
6.28164
24.4075
-1.06527
-7.81284
9.40441
-2.54512
10.5295
0.529231
905.787
907.811
16.1008
-3.40987
0.41682
691.428
-15.8405
17.5916
25.8225
-5.71467
-7.69338
15.4483
-2.96472
330.717
135.75
14.0438
12.3964
10.5061
7.10243
18.889
8.07498
6.34869
21.1579
20.7123
25.7419
15.4975
717.389
11.1306
-1.64118
8.25232
903.318
899.362
-8.03045
17.9815
1.10315
17.2787
21.4164
-6.8439
-0.696981
-0.730787
1.92726
7.47527
3.94131
0.311693
34.8466
18.0215
9.77459
2.52958
6.78302
17.4652
3.86498
22.6639
20.0903
16.1838
3.10244
-7.47292
-2.64556
29.7242
10.4819
-5.86921
22.6588
29.9476
10.8604
363.627
378.061
393.591
-1.41451
659.588
4.88327
30.1911
19.8054
2.77303
18.927
31.1143
19.4019
18.7022
18.602
21.4521
54.6462
15.6651
43.6122
22.8915
1.00338
6.71059
8.31994
47.1808
55.0115
55.0322
16.4783
8.47757
25.6631
9.01426
1.60014
6.98174
10.7933
107.856
111.744
12.2282
4.70914
62.4655
81.4336
93.1812
64.0072
32.7642
903.354
904.205
97.7587
904.449
120.754
905.086
423.878
344.721
21.6985
408.82
409.557
384.152
164.065
353.27
352.003
355.03
27.7549
34.1914
19.9782
53.7659
36.1189
23.812
19.0212
109.373
152.928
153.701
86.5402
122.604
186.684
80.6197
20.6299
50.423
-16.9176
7.84089
15.7371
11.5297
696.661
753.188
887.855
703.896
925.907
783.496
777.54
-6.51601
672.373
804.109
785.791
931.475
-28.8311
935.936
894.288
791.453
941.225
-9.53769
932.646
781.145
-14.7358
931.932
788.793
-16.623
894.365
594.858
578.586
923.983
925.751
919.634
926.207
923.715
925.588
152.901
944.821
929.514
1062.73
1052.4
1056.15
932.137
-15.1549
0.286094
985.67
771.036
771.401
924.767
907.133
923.202
343.619
-29.7354
1063.08
935.619
939.415
985.15
924.619
925.95
923.293
925.042
925.17
925.588
939.977
941.042
240.728
-15.2376
1048.86
-37.6423
927.872
1057.54
783.181
1053.31
827.687
1061.84
-13.1318
1038.58
429.231
739.086
1048.99
869.24
1057.64
839.231
972.478
-85.3834
815.614
-12.5111
576.162
1067.18
-95.2213
1050.64
821.019
988.011
534.131
-13.6039
-101.089
918.044
871.66
938.976
-14.2566
-80.8893
874.301
-88.8403
-8.32246
922.162
-9.14389
-91.2073
345.167
-0.246607
574.654
459.195
960.079
918.456
-0.816148
936.613
932.356
-98.6443
)
;

boundaryField
{
    patch0
    {
        type            fixedFluxPressure;
        gradient        uniform 0;
        value           nonuniform List<scalar> 
4010
(
152.92
152.92
-12.4511
-12.4511
-42.0089
-42.0089
-49.5193
-49.5193
-16.4609
-16.4609
-53.1312
-53.1312
-59.8074
-59.8074
-63.483
-63.483
-69.9765
-69.9765
-36.4624
-36.4624
-76.7305
-76.7305
-82.985
-82.985
-12.2791
-12.2791
-89.0545
-89.0545
-84.2735
-84.2735
-76.4993
-76.4993
-11.5412
-11.5412
-94.1093
-94.1093
296.345
296.345
-98.017
-98.017
40.2818
40.2818
-16.2733
-16.2733
-11.0638
-11.0638
-100.187
-100.187
-15.1375
-15.1375
-9.40145
-9.40145
-12.68
-12.68
-18.1213
-18.1213
-16.1373
-16.1373
34.3006
34.3006
-12.7519
-12.7519
-17.2507
-17.2507
301.186
301.186
-10.386
-10.386
-29.1454
-29.1454
0.0835572
0.0835572
-22.7333
-22.7333
-16.6311
-16.6311
41.7167
41.7167
-12.9528
-12.9528
-24.0439
-24.0439
-3.49986
-3.49986
-16.548
-16.548
-3.0125
-3.0125
-35.1159
-35.1159
-14.9889
-14.9889
-72.5793
-72.5793
-52.9677
-52.9677
894.032
894.032
849.288
849.288
683.759
683.759
-13.6114
-13.6114
-15.7515
-15.7515
711.518
711.518
-16.6778
-16.6778
-37.7728
-37.7728
198.405
198.405
-29.8743
-29.8743
-25.9266
-25.9266
-4.69522
-4.69522
0.485509
0.485509
-71.4997
-71.4997
-4.71458
-4.71458
54.031
54.031
688.402
688.402
-41.6909
-41.6909
-24.7843
-24.7843
-11.1614
-11.1614
-15.9428
-15.9428
355.047
355.047
-6.33582
-6.33582
-55.3363
-55.3363
53.4034
53.4034
23.8852
23.8852
14.6806
14.6806
-16.5768
-16.5768
-41.1216
-41.1216
0.272324
0.272324
-39.6005
-39.6005
-2.52983
-2.52983
-67.294
-67.294
-11.8112
-11.8112
8.62136
8.62136
-13.7205
-13.7205
704.395
704.395
-6.23712
-6.23712
-30.9845
-30.9845
-88.7659
-88.7659
897.695
897.695
-9.60946
-9.60946
-29.8814
-29.8814
-5.85889
-5.85889
-16.6488
-16.6488
-15.8318
-15.8318
-14.0753
-14.0753
691.076
691.076
-45.3506
-45.3506
-73.6988
-73.6988
-6.05901
-6.05901
-15.0029
-15.0029
-33.3619
-33.3619
-14.0313
-14.0313
-10.1923
-10.1923
-7.38448
-7.38448
-19.5664
-19.5664
-28.8191
-28.8191
-24.5705
-24.5705
-17.5767
-17.5767
0.522317
0.522317
-14.1106
-14.1106
-48.9672
-48.9672
-15.8623
-15.8623
-10.7935
-10.7935
30.6504
30.6504
-33.0497
-33.0497
-14.2813
-14.2813
-37.7467
-37.7467
-69.0476
-69.0476
3.71931
3.71931
-41.0507
-41.0507
733.685
733.685
926.034
926.034
775.509
775.509
-10.4036
-10.4036
-34.8708
-34.8708
-18.3637
-18.3637
-14.3848
-14.3848
-9.34664
-9.34664
-14.5456
-14.5456
919.912
919.912
-50.6295
-50.6295
-31.7705
-31.7705
-15.6928
-15.6928
21.9931
21.9931
-13.8549
-13.8549
-20.1728
-20.1728
-21.8365
-21.8365
-17.6399
-17.6399
-101.391
-101.391
-10.6665
-10.6665
-47.877
-47.877
-47.1149
-47.1149
-60.8554
-60.8554
-60.8554
651.742
651.742
651.742
-42.001
-42.001
920.959
920.959
-18.8873
-18.8873
-13.0997
-13.0997
3.40048
3.40048
-0.657431
-0.657431
38.0803
38.0803
926.716
926.716
926.716
-12.7692
-12.7692
-36.0003
-36.0003
-48.3792
-48.3792
-16.4964
-16.4964
928.538
928.538
-27.7723
-27.7723
-58.3147
-58.3147
-88.6326
-88.6326
28.491
28.491
-17.5566
-17.5566
-41.1222
-41.1222
925.146
925.146
65.1263
65.1263
-20.3822
-20.3822
-20.0071
-20.0071
930.997
930.997
-40.5776
-40.5776
-17.5934
-17.5934
-16.3792
-16.3792
-53.9288
-53.9288
-27.9949
-27.9949
-1.45918
-1.45918
-37.5808
-37.5808
-18.277
-18.277
38.1342
38.1342
3.37362
3.37362
10.4538
10.4538
-46.2386
-46.2386
-19.2298
-19.2298
-66.9468
-66.9468
-6.21776
-6.21776
-22.3317
-22.3317
937.807
937.807
-27.071
-27.071
-13.1894
-13.1894
-20.5642
-20.5642
-46.3632
-46.3632
9.76246
9.76246
-18.3679
-18.3679
-60.6014
-60.6014
-60.2533
-60.2533
-53.3315
-53.3315
-26.5733
-26.5733
925.201
925.201
925.201
-22.4769
-22.4769
-18.5561
-18.5561
-18.8505
-18.8505
-17.7693
-17.7693
660.612
660.612
-7.94421
-7.94421
-24.4422
-24.4422
-66.6556
-66.6556
-17.6539
-17.6539
-21.577
-21.577
-57.7202
-57.7202
-12.2587
-12.2587
-13.86
-13.86
-3.45085
-3.45085
-3.45085
923.042
923.042
-22.754
-22.754
-100.097
-100.097
-26.2468
-26.2468
-23.026
-23.026
-21.5644
-21.5644
6.30442
6.30442
-18.7088
-18.7088
-64.9965
-64.9965
-10.8742
-10.8742
-17.7704
-17.7704
-22.1971
-22.1971
-21.9195
-21.9195
-98.3746
-98.3746
-75.6506
-75.6506
-22.4221
-22.4221
-67.7324
-67.7324
-41.0406
-41.0406
-33.715
-33.715
-18.6079
-18.6079
-17.2483
-17.2483
-13.0498
-13.0498
-19.9094
-19.9094
-3.19313
-3.19313
-23.8516
-23.8516
41.8899
41.8899
41.8899
-98.3419
-98.3419
-70.4903
-70.4903
-29.844
-29.844
923.176
923.176
923.176
-50.8106
-50.8106
-22.0104
-22.0104
-99.359
-99.359
-12.5897
-12.5897
-91.5246
-91.5246
-14.7842
-14.7842
-81.2864
-81.2864
-45.9246
-45.9246
-9.57574
-9.57574
-34.647
-34.647
-41.6838
-41.6838
921.227
921.227
-34.5782
-34.5782
-28.9566
-28.9566
-46.2778
-46.2778
-95.352
-95.352
-6.40412
-6.40412
-22.9668
-22.9668
-19.967
-19.967
-78.3067
-78.3067
-19.5983
-19.5983
-33.2854
-33.2854
2.57617
2.57617
-23.0165
-23.0165
-14.3758
-14.3758
15.3154
15.3154
-15.5606
-15.5606
-22.2123
-22.2123
-17.2285
-17.2285
-21.2338
-21.2338
-16.7546
-16.7546
46.7511
46.7511
-15.0178
-15.0178
-27.9411
-27.9411
-8.7854
-8.7854
-69.9707
-69.9707
-88.0726
-88.0726
-22.5627
-22.5627
-34.6903
-34.6903
-19.3687
-19.3687
502.124
502.124
924.365
924.365
924.365
-24.1647
-24.1647
-40.907
-40.907
722.083
722.083
9.39528
9.39528
-70.1692
-70.1692
921.102
921.102
-81.6895
-81.6895
-23.6525
-23.6525
-41.3326
-41.3326
38.0418
38.0418
-22.1069
-22.1069
-93.4937
-93.4937
217.71
217.71
67.1871
67.1871
-93.6122
-93.6122
-11.4365
-11.4365
-17.1803
-17.1803
-92.7972
-92.7972
921.703
921.703
921.703
-35.0967
-35.0967
-96.0846
-96.0846
11.0208
11.0208
-91.1155
-91.1155
-30.3549
-30.3549
-11.0414
-11.0414
-95.611
-95.611
-26.7916
-26.7916
-21.5507
-21.5507
-14.1609
-14.1609
19.0021
19.0021
-36.7582
-36.7582
-14.5126
-14.5126
-53.9501
-53.9501
-10.7814
-10.7814
-19.2234
-19.2234
-87.7471
-87.7471
-39.8219
-39.8219
-21.5305
-21.5305
24.7243
24.7243
-15.8
-15.8
-42.7857
-42.7857
54.3247
54.3247
-19.4204
-19.4204
-52.7175
-52.7175
-25.6527
-25.6527
-27.483
-27.483
-47.8374
-47.8374
-79.8406
-79.8406
-20.9295
-20.9295
-14.6291
-14.6291
-14.1524
-14.1524
-96.1638
-96.1638
-2.22891
-2.22891
-17.9044
-17.9044
-5.84616
-5.84616
-49.3436
-49.3436
-46.1589
-46.1589
-45.4207
-45.4207
-46.104
-46.104
39.0283
39.0283
-13.2434
-13.2434
-13.0796
-13.0796
-89.1554
-89.1554
-48.8021
-48.8021
6.65349
6.65349
-27.9991
-27.9991
32.3696
32.3696
-28.1178
-28.1178
2.06751
2.06751
-59.6037
-59.6037
90.6006
90.6006
-88.874
-88.874
-13.718
-13.718
-32.909
-32.909
923.837
923.837
-87.8523
-87.8523
-23.3994
-23.3994
439.315
439.315
-18.3478
-18.3478
-86.5843
-86.5843
-91.4507
-91.4507
-10.4412
-10.4412
-2.20862
-2.20862
-53.5829
-53.5829
-13.2767
-13.2767
-14.027
-14.027
-41.7104
-41.7104
-47.7334
-47.7334
-92.7255
-92.7255
-22.6355
-22.6355
-24.8628
-24.8628
-44.5627
-44.5627
-2.7399
-2.7399
-3.83545
-3.83545
-85.0237
-85.0237
-84.8502
-84.8502
-10.6087
-10.6087
-29.487
-29.487
-35.997
-35.997
-26.5973
-26.5973
-27.7323
-27.7323
-25.5447
-25.5447
-18.4148
-18.4148
-92.032
-92.032
6.44546
6.44546
-10.2261
-10.2261
-6.81617
-6.81617
-55.1435
-55.1435
93.5901
93.5901
-12.5462
-12.5462
-26.0323
-26.0323
-11.4725
-11.4725
-56.7218
-56.7218
-17.9176
-17.9176
-17.9176
-3.93623
-3.93623
-11.0472
-11.0472
-80.5211
-80.5211
-55.821
-55.821
918.195
918.195
-17.4768
-17.4768
-14.101
-14.101
-18.2258
-18.2258
929.675
929.675
929.675
0.354802
0.354802
-82.416
-82.416
-14.619
-14.619
-22.6634
-22.6634
8.37996
8.37996
-14.9456
-14.9456
-13.038
-13.038
-92.9267
-92.9267
-63.4073
-63.4073
-48.9293
-48.9293
11.2212
11.2212
-62.1289
-62.1289
-81.8476
-81.8476
-0.57691
-0.57691
-51.3684
-51.3684
-82.152
-82.152
-15.1143
-15.1143
-78.085
-78.085
-12.5023
-12.5023
-7.5058
-7.5058
-85.6592
-85.6592
-54.152
-54.152
43.7524
43.7524
-11.914
-11.914
0.317849
0.317849
-3.10777
-3.10777
-56.2383
-56.2383
-0.451118
-0.451118
-6.70875
-6.70875
-53.8654
-53.8654
-0.372618
-0.372618
-87.7376
-87.7376
662.432
662.432
-66.2842
-66.2842
-8.22943
-8.22943
-19.8892
-19.8892
-1.87902
-1.87902
-25.4848
-25.4848
82.0171
82.0171
-16.7962
-16.7962
-341.65
-341.65
-341.65
-17.9401
-17.9401
-11.0797
-11.0797
-26.4757
-26.4757
-0.740437
-0.740437
-76.4788
-76.4788
-12.0686
-12.0686
-30.5034
-30.5034
-89.4768
-89.4768
10.0488
10.0488
-22.9871
-22.9871
-86.2573
-86.2573
-78.0399
-78.0399
0.18149
0.18149
-31.6178
-31.6178
-42.7376
-42.7376
-9.4565
-9.4565
-6.343
-6.343
-6.2687
-6.2687
-14.161
-14.161
-1.31683
-1.31683
-5.05289
-5.05289
-42.9883
-42.9883
-75.4021
-75.4021
-27.184
-27.184
13.247
13.247
-12.0806
-12.0806
21.9377
21.9377
-83.4055
-83.4055
-14.7338
-14.7338
-37.2291
-37.2291
57.0435
57.0435
-89.2973
-89.2973
-17.0626
-17.0626
-43.6647
-43.6647
-13.1464
-13.1464
-62.0258
-62.0258
2.90647
2.90647
-6.00305
-6.00305
-9.7616
-9.7616
1.04389
1.04389
7.88714
7.88714
-33.4551
-33.4551
1.99024
1.99024
-62.857
-62.857
354.508
354.508
2.26589
2.26589
-12.019
-12.019
-55.221
-55.221
-74.1107
-74.1107
-72.422
-72.422
-23.2485
-23.2485
3.01123
3.01123
10.8067
10.8067
52.4479
52.4479
-74.7469
-74.7469
-74.1654
-74.1654
-18.2985
-18.2985
-6.54143
-6.54143
-13.7004
-13.7004
9.04352
9.04352
-74.7366
-74.7366
18.1607
18.1607
-10.7323
-10.7323
-80.7921
-80.7921
-25.6103
-25.6103
-64.2834
-64.2834
2.92617
2.92617
-27.7225
-27.7225
3.1943
3.1943
1.36144
1.36144
-7.14111
-7.14111
-20.1674
-20.1674
-74.9765
-74.9765
-35.3277
-35.3277
0.467983
0.467983
-71.2001
-71.2001
-51.1462
-51.1462
-80.1882
-80.1882
-34.3972
-34.3972
-17.617
-17.617
3.86231
3.86231
0.144806
0.144806
16.1779
16.1779
-47.211
-47.211
-5.50472
-5.50472
-91.091
-91.091
-10.993
-10.993
-3.02315
-3.02315
-13.1464
-13.1464
0.952511
0.952511
-58.4032
-58.4032
-14.7602
-14.7602
-4.19198
-4.19198
-3.99785
-3.99785
-8.20719
-8.20719
58.3043
58.3043
48.5183
48.5183
-21.4602
-21.4602
-75.5305
-75.5305
5.97377
5.97377
42.6346
42.6346
63.425
63.425
-6.86878
-6.86878
-87.9849
-87.9849
7.4859
7.4859
5.00906
5.00906
-42.3466
-42.3466
-5.56178
-5.56178
3.85696
3.85696
-1.84311
-1.84311
0.349985
0.349985
614.633
614.633
69.0698
69.0698
54.6028
54.6028
-5.17321
-5.17321
1.76862
1.76862
-17.6455
-17.6455
5.02042
5.02042
-19.2982
-19.2982
-7.69734
-7.69734
-45.203
-45.203
-61.0844
-61.0844
31.9765
31.9765
-8.60677
-8.60677
-69.6611
-69.6611
5.42495
5.42495
15.07
15.07
7.09358
7.09358
-12.2073
-12.2073
3.63253
3.63253
13.9422
13.9422
-13.8829
-13.8829
-65.5603
-65.5603
3.34981
3.34981
-5.91411
-5.91411
-19.7103
-19.7103
-80.4031
-80.4031
5.68658
5.68658
662.162
662.162
77.62
77.62
-64.2332
-64.2332
30.4188
30.4188
-57.8532
-57.8532
42.2872
42.2872
15.4895
15.4895
-0.366707
-0.366707
302.044
302.044
568.811
568.811
575.783
575.783
-66.9884
-66.9884
4.65581
4.65581
-44.4601
-44.4601
0.389304
0.389304
-5.11685
-5.11685
392.508
392.508
-65.38
-65.38
-40.3692
-40.3692
80.0998
80.0998
-8.43109
-8.43109
-86.1338
-86.1338
-15.2828
-15.2828
-34.8346
-34.8346
-10.1072
-10.1072
31.0683
31.0683
-0.428035
-0.428035
-58.3473
-58.3473
10.0011
10.0011
-63.3117
-63.3117
-6.39298
-6.39298
-7.59235
-7.59235
-27.9011
-27.9011
-12.6156
-12.6156
498.773
498.773
65.9511
65.9511
-68.9753
-68.9753
-51.5664
-51.5664
-65.5724
-65.5724
-1.5482
-1.5482
-63.0821
-63.0821
11.9605
11.9605
-0.370375
-0.370375
-14.1014
-14.1014
-12.6539
-12.6539
2.64304
2.64304
-27.2071
-27.2071
2.86084
2.86084
-46.0141
-46.0141
13.6637
13.6637
-4.02359
-4.02359
373.261
373.261
2.19443
2.19443
104.88
104.88
5.28444
5.28444
-67.3141
-67.3141
9.88485
9.88485
12.2674
12.2674
-7.19073
-7.19073
17.0655
17.0655
4.29297
4.29297
-57.1189
-57.1189
-4.65269
-4.65269
-28.7251
-28.7251
5.71396
5.71396
-16.4424
-16.4424
-2.49201
-2.49201
11.8035
11.8035
-26.5606
-26.5606
-33.486
-33.486
2.72205
2.72205
6.15784
6.15784
-4.59995
-4.59995
-30.1784
-30.1784
12.1669
12.1669
21.5851
21.5851
0.252735
0.252735
229.959
229.959
-5.9421
-5.9421
-59.9782
-59.9782
4.69211
4.69211
73.248
73.248
0.895486
0.895486
-20.2304
-20.2304
-0.0544923
-0.0544923
-7.55001
-7.55001
-5.12047
-5.12047
-41.6461
-41.6461
33.061
33.061
-72.5369
-72.5369
-49.3074
-49.3074
-54.7026
-54.7026
-77.5284
-77.5284
-32.1261
-32.1261
252.698
252.698
1.52619
1.52619
-54.4021
-54.4021
-55.5949
-55.5949
-1.53288
-1.53288
4.57425
4.57425
13.8741
13.8741
-56.6504
-56.6504
7.18663
7.18663
833.07
833.07
-55.0289
-55.0289
193.053
193.053
43.7162
43.7162
-41.6831
-41.6831
-71.7452
-71.7452
2.58766
2.58766
-4.66838
-4.66838
-50.465
-50.465
2.92334
2.92334
-20.9945
-20.9945
-5.38026
-5.38026
7.85513
7.85513
-46.3971
-46.3971
-0.0908919
-0.0908919
3.23704
3.23704
-13.3323
-13.3323
189.627
189.627
3.53828
3.53828
11.5903
11.5903
3.24438
3.24438
-55.0471
-55.0471
-1.55696
-1.55696
-5.27097
-5.27097
150.108
150.108
12.1931
12.1931
909.044
909.044
1.52186
1.52186
-10.2313
-10.2313
12.0617
12.0617
-4.18806
-4.18806
-46.0789
-46.0789
719.602
719.602
-17.9422
-17.9422
-9.91741
-9.91741
-37.0715
-37.0715
1.72249
1.72249
-26.9792
-26.9792
223.424
223.424
2.87057
2.87057
2.87057
217.371
217.371
-12.8626
-12.8626
-53.9767
-53.9767
7.56442
7.56442
24.5441
24.5441
83.5624
83.5624
-1.00827
-1.00827
3.19039
3.19039
2.06353
2.06353
6.63981
6.63981
8.78321
8.78321
-1.60019
-1.60019
-3.80867
-3.80867
87.3626
87.3626
5.96226
5.96226
-42.1381
-42.1381
564.526
564.526
-79.3661
-79.3661
83.5098
83.5098