/*--------------------------------*- C++ -*----------------------------------*\
  =========                 |
  \\      /  F ield         | OpenFOAM: The Open Source CFD Toolbox
   \\    /   O peration     | Website:  https://openfoam.org
    \\  /    A nd           | Version:  8
     \\/     M anipulation  |
\*---------------------------------------------------------------------------*/
FoamFile
{
    version     2.0;
    format      ascii;
    class       surfaceScalarField;
    location    "0.8";
    object      phi;
}
// * * * * * * * * * * * * * * * * * * * * * * * * * * * * * * * * * * * * * //

dimensions      [0 3 -1 0 0 0 0];

internalField   nonuniform List<scalar> 
2805
(
-0.000523776
0.000871998
-0.000348222
0.00141973
-0.00194351
-0.00169519
-0.016838
0.0185332
0.0171271
-0.0188223
0.00114835
0.000271382
-0.000888343
0.0180155
0.0149742
-0.0158625
-0.000872854
0.015847
0.0124517
-0.0133246
-0.0231271
0.00628911
-0.00281387
0.0152656
0.0107477
-0.0135616
-0.00180207
0.00179052
1.15498e-05
0.000351056
0.0103967
0.00188362
-0.00787979
0.00599617
-0.00613773
0.00802135
-0.00150623
-0.000295844
0.00949465
-0.0091436
0.000736283
0.000135716
-0.000715392
0.01021
0.00039152
-0.000659511
0.000267991
-0.00876497
0.00756217
0.0012028
0.000876832
-0.00189667
0.00101984
0.00344667
-0.00416206
-0.00687078
-0.00189419
-0.00616785
0.00595425
0.0002136
0.0026091
-0.00877695
0.018391
-0.0168865
-0.00150442
-0.00288463
0.00385533
-0.000970701
-0.0107326
0.00149691
0.00923565
0.00166778
-0.000790951
-0.00115871
-0.00571207
0.000497903
-0.000152442
-0.000345461
-0.00195583
0.000449608
0.00367223
0.0147187
-0.00169685
-0.000199829
-0.0064802
0.00532148
-0.00819444
0.00530981
0.00139057
-0.0121231
-0.000288051
-0.00236774
-0.00411246
-0.000421604
0.000813124
0.00358651
0.000578132
0.00044171
0.024999
-0.00456523
-0.0204338
-0.000455467
6.29117e-05
0.000392556
-0.00029475
4.72823e-05
0.000247467
-0.00605543
0.0283956
-0.0223402
-0.00029647
-4.77944e-05
0.000344264
0.000196171
0.000261028
-0.000457198
0.000768708
-0.00167973
0.000911021
0.00136892
0.00606915
0.00149302
0.00151918
-0.000750468
0.00165824
-0.000473617
-0.00118463
-0.0194548
0.000441533
0.0189436
0.022725
-0.00378141
-0.0138531
0.00860346
0.00524959
0.000831643
-0.000253511
0.00691888
-0.0130566
0.00113708
-0.000305433
-0.00824508
-0.00336427
0.0116094
0.000182516
0.00133666
0.00675857
0.021637
-0.0210018
0.00493953
0.0160623
-0.0025072
0.000810359
0.00339986
-0.000637769
-0.00104196
-0.000806184
0.000258738
0.000547446
-0.00737673
0.0142956
-0.00685452
-0.00897208
0.010469
-0.00191349
-0.00705859
-0.0013404
-0.000573089
0.00191349
0.0217182
-0.0149596
-0.00912518
0.0072117
-0.00973103
-0.0126091
0.000499307
0.0105831
-0.0153054
0.0047223
0.00949679
-0.0068877
-0.00413255
-0.0113513
0.0154838
-0.000296384
-0.000363127
0.000149681
-0.000861285
-0.00164592
0.00583848
-0.00433815
-0.00354163
-0.000100299
-0.00124753
0.000441344
-0.0062137
-0.0147881
0.00182056
0.00767623
0.00172116
0.0044008
-0.00278287
-0.00161793
-0.00157827
0.000330743
0.00105365
-0.000871129
0.0067237
0.0149945
0.012543
-0.00195989
-0.0148534
0.00100039
-0.00222509
0.000884689
-0.00606357
0.0150598
-0.00899626
-0.00187466
-0.00523731
-0.00961613
0.00807543
-0.00625487
0.000645261
0.00375554
-0.0124767
0.00766755
0.00480918
-0.00383133
-0.007587
0.0114183
0.00114625
-0.000500989
0.0078613
0.00074216
-0.00106172
-0.00618085
0.0129045
0.00608816
-0.0026883
-0.00704609
0.0143382
-0.00791447
-0.00642374
0.00484929
-0.0145803
-0.000601571
0.000238443
0.0124696
0.0105855
-0.00256412
0.00319528
-0.000440054
-0.00275523
-0.0101104
-0.000167473
0.000317154
-0.000296918
0.000307438
-1.05191e-05
0.000529019
-0.000160227
-0.0114965
0.0164361
-0.0021323
0.0068021
-0.0046698
-0.00141599
0.000842904
0.00175353
-0.0108787
0.00502645
-5.07144e-05
0.000212655
-0.000161941
0.00509287
-0.0112737
0.0112285
-0.000423337
-0.000784008
0.00120734
0.0102057
-0.000505739
0.0102007
-0.00644519
0.0102753
-0.00496549
0.00464575
-0.00119908
0.00767263
0.0274755
-0.0188733
-0.000903458
0.000903458
0.000274522
-0.000274522
-0.00506406
0.0175336
-0.000154869
0.000104155
-0.000986046
-0.00196635
0.00606641
0.0017949
0.00116827
0.00202701
-0.0172289
0.00587765
-0.000296918
-0.00113946
-0.000276529
-0.00415247
0.015381
0.0129514
0.00491675
0.00188535
0.000283886
2.3552e-05
-0.0139617
-0.00579084
0.0108837
1.80938e-05
-0.0108619
0.0108438
-0.0131871
0.00527266
0.00149015
0.0133812
-0.000288051
-8.86774e-06
0.00587752
-0.0115892
0.0057117
0.00553093
0.0137705
-0.00885375
0.000112818
0.000171068
0.00118458
-0.0112949
-0.00141874
0.00069932
-0.000851762
-0.00407511
0.0170265
-0.00939171
-0.00308502
0.00907582
0.00802066
-0.00185222
0.00214802
-0.000295797
-0.00395149
-0.000100681
0.000648127
0.000885719
-0.00108555
-0.00337305
0.0167542
0.00598227
-0.00243428
-0.00354799
0.00342147
0.00716401
-0.0101084
-0.00097195
0.0110804
0.00780034
0.00597016
0.000171828
-0.000219623
0.00344793
-0.00340065
-0.000966559
-0.000172904
-0.00479725
0.0110128
-0.00621557
-0.0100891
-0.00949704
0.0147697
-0.00132014
0.000334092
0.0117719
0.00389073
-0.00968157
0.0136535
0.0193607
-0.0115604
-0.000288051
-0.00713057
0.0151955
-0.00806496
0.00111138
-0.0029636
0.000822119
0.000289265
-0.00222803
-0.000735575
-7.09383e-05
0.0142286
-0.00869768
0.014614
-0.00284214
0.00118501
-0.0019143
0.0155678
-0.00126736
0.000300796
-0.00224288
-0.000784008
-0.000287414
-6.3684e-07
0.00999958
0.00384193
-0.000397135
-0.00344479
0.0108085
0.00855226
0.00388225
0.00942108
0.00569145
0.000374955
0.000827879
0.0126997
-0.0102011
-0.000677639
0.00271323
0.0155019
0.00537486
0.00275933
0.00108259
0.0124234
0.00919464
0.00600089
-0.00652741
0.0104181
0.00514797
-0.0110083
0.00586034
0.0241018
-0.0132933
-0.00303356
0.00080553
0.000733728
-0.00120734
0.0209179
-0.0083406
-0.0125773
-0.00161216
0.0181351
-0.00894049
-0.0108619
-0.00013104
-0.000266095
-0.000305029
0.0130048
0.0188484
-0.0134735
-0.000287414
0.012239
-0.00881752
0.00270436
-0.00151934
0.000159793
-0.000290833
-0.000794976
-0.00047238
0.0062786
-0.0108438
-0.00191214
0.0119969
0.000426529
0.0230152
-0.00289674
-0.00424374
-0.00718206
-0.00019148
-9.59342e-05
0.0136059
0.0104958
0.0013019
-0.00113514
-0.008954
0.000321056
0.00243828
-0.00260873
0.00282233
0.000983136
-0.00246587
0.00148274
0.00300249
0.0116919
0.00897265
0.007288
0.00467309
0.00440273
0.00652434
-0.00538515
-0.000326922
0.00418196
-0.0112406
0.000458293
0.000354832
0.00789731
-0.0109823
0.000305528
-0.000655991
-0.00392489
0.000891329
-0.0113514
-0.000459206
-0.000438091
0.00234282
-0.00190473
0.00784456
0.0130733
-0.00628839
-0.00901702
0.0108232
0.0107221
0.00741302
0.0166829
-0.00080663
-0.000238411
-0.00019148
-0.0145543
0.0266348
-0.0130289
8.98321e-05
0.000227322
0.00139594
-0.00792335
-0.000212655
2.11759e-05
0.00160633
0.0100856
0.00368749
0.0226664
-0.0153784
-0.00755861
-0.00456451
0.0196283
-0.0089062
-0.00365815
0.00339206
-0.000218755
-0.00897126
-0.00261795
0.00190699
-0.00158593
-0.00122398
0.000429001
-0.00230377
-0.00121988
0.00320934
0.00274664
-0.00258685
0.00364797
0.00204349
0.00966816
0.00115503
-0.0020025
0.00663158
-0.00462907
-0.000189761
0.000648054
9.91078e-06
0.00273673
-0.00290396
-0.00493189
-0.00161134
0.0017634
-0.000595126
0.0157528
0.010882
0.00263438
-0.00511344
0.00247906
-0.0108167
-0.000178211
0.00542467
0.0112745
0.0093731
0.0139769
-0.00337665
-0.00200926
-0.00191563
0.0199636
-0.0145853
0.00561401
-0.00251912
-0.00625783
0.00486864
-0.0123427
0.00747401
0.00756975
0.000340317
0.00419283
-0.00932669
0.0107226
-0.00232597
0.00164316
0.0144191
-0.000532856
0.00316723
0.0113651
0.0097515
-0.0104291
0.0118938
0.00773452
0.0130942
0.0235538
-0.0141807
0.026808
-0.0110552
0.00458516
-0.00613967
-0.0177752
0.00334247
-0.00523666
-0.00143087
0.00020689
0.00516328
-0.0032563
0.00542214
0.00887347
0.0176952
-0.00125911
0.000465025
0.00129838
0.0067986
-0.00321209
0.00498427
0.000727427
0.00662233
-0.00323027
-0.00211708
0.00820746
-0.0124512
-7.85332e-05
0.000160855
-8.23219e-05
0.00363116
0.00764332
-0.0068646
0.00396064
0.00149872
-0.000445072
0.0193388
-0.00744497
-0.00674377
0.00552389
0.00403548
0.0103931
0.00268026
0.00141345
0.020153
-0.00177098
-0.00555696
0.00354769
0.0169162
0.00989177
0.010525
0.00539829
-0.00538837
0.00776135
0.0056618
-0.000362969
0.012602
0.00604048
0.00163575
-0.000648127
0.0004879
-0.00158049
0.00273987
0.00380781
-0.00413473
0.00463264
0.0130625
0.0100548
-0.00277486
0.00566502
0.0182572
-0.0042416
3.49765e-05
0.00536331
-0.00148906
0.0120362
0.00343175
0.00597222
0.0021458
-0.00267866
0.0116659
0.0139879
0.000431253
0.0255465
-0.0150215
0.00500012
-0.0021778
-0.00142885
-0.00244807
-0.00687862
0.00630934
-0.00014314
-1.17295e-05
0.00988588
-0.0121896
-0.00144966
1.8794e-05
-0.0013124
0.000112818
0.00734999
0.00574416
0.00441762
-0.00914792
0.00473031
0.0127288
0.00178804
0.0125066
0.00683216
0.000396274
0.00174953
0.00998971
-0.00635854
0.018977
0.0254111
-0.00849489
0.00365968
-1.17185e-05
0.00672219
-0.0130106
0.00957973
-0.00405584
0.00115944
-0.000608178
-0.00055126
0.0170974
0.00634945
-0.00158503
-0.00397192
-0.0045994
-0.00168808
0.0039931
-0.00257964
0.0102569
-0.00622147
-0.00398779
-0.00682892
-0.012261
0.00769646
0.00157311
-0.00334409
0.00225901
0.00241408
0.0100302
-0.00562047
0.00514489
0.00193481
8.47639e-05
-0.00201957
0.0144913
0.00389476
0.00486857
-3.15349e-05
0.000525796
-0.000494261
0.00395544
-0.000141638
-0.00275886
0.004231
-0.000799249
0.0101922
-0.00193638
-0.000681572
0.0179421
-0.00487955
0.0178146
-0.00530801
-0.000543261
0.00703683
0.0106594
0.00137688
0.00990388
-0.00110555
0.0210743
-0.00777312
0.00532505
0.0020532
0.0144499
0.00978721
-0.00975224
-0.01047
0.00888954
-0.00015568
0.00209049
0.000592864
0.00946192
0.00780235
-0.013942
0.00166604
-0.00309488
-0.000891318
0.000713107
0.00187133
-0.00151401
6.43469e-05
0.0110906
0.0151298
-0.00240107
0.0169185
0.00849261
0.014041
-0.017541
0.00311268
-0.00132465
0.00130959
-0.000913317
0.00849934
-0.011876
0.00063929
-0.00468716
0.00310213
-0.00464886
-0.0124991
0.00564456
0.00603705
0.00395266
0.00746993
0.0104721
-0.00410616
0.0104155
-0.00819132
0.0226826
0.00753905
0.0102503
-0.00167805
0.000533038
0.00322881
0.000665956
0.012405
-0.012768
0.00182914
0.00331575
-0.0119111
0.000616519
0.00424322
0.00139436
0.00123487
0.0133428
-0.00699333
0.00942376
-0.0140232
0.00806279
0.00758686
0.00244338
0.00242956
-0.0116039
-0.00298141
0.00712132
-0.000566152
-0.00673078
0.00210473
-0.00224637
-0.00198393
0.00300505
0.000654629
-0.0125196
0.00846373
0.00283062
-0.000777422
0.000666184
-0.00177173
0.0155551
-0.0106866
0.010404
-0.0131789
-0.00358682
0.00896375
0.0121338
0.0112334
-0.000142735
0.00883229
-0.000990157
0.00819202
0.00584969
0.00535576
0.00100656
0.00108393
-0.00363002
0.0100092
-0.0156296
0.00580291
0.0220255
0.0159265
0.0108915
-0.0123805
-0.00134909
0.00109558
0.00150598
0.022333
-0.00541451
0.000932611
0.000938716
0.00819958
-0.00216253
-0.000247133
-0.00138145
0.000520168
-0.00233798
0.000823975
-0.00285207
0.0131024
0.0141877
-0.003299
-0.00138815
0.00234771
-0.00181468
7.21869e-05
-0.00175024
-0.0161071
0.00450327
-0.000475937
0.000975244
-0.00178566
0.0145859
-0.0139466
0.00247774
0.00176548
-0.0100644
-0.00219661
-0.00919146
0.00582719
-0.00513403
0.0156062
-0.00458839
-0.00318474
0.0031437
0.00464416
0.00289489
0.00159799
0.000527708
0.000866647
0.00245041
-2.08544e-05
-0.000222014
-0.000463375
0.00110081
-0.000189785
0.00158485
-0.00456626
-0.00480262
0.000101349
0.00193917
-0.000469496
0.00708755
-0.00277014
-0.0022541
-0.00393286
0.0121186
-0.00156502
-0.00169955
0.000562779
0.0036907
0.00167299
0.00762493
0.00133882
0.0126876
-0.0132309
0.00964033
-0.000808039
-0.00160772
0.000522177
-0.00196513
0.0183737
-0.0112524
0.00123204
-0.00167209
7.11821e-05
-0.00106134
-0.001838
0.0099008
0.013493
0.00748219
0.000184637
0.00115202
0.000619646
-0.0148599
0.00786653
0.00105917
-0.000594145
0.0134815
-0.0170683
-0.0121611
0.00242105
-0.000915074
0.00161163
-5.05339e-05
-0.000605457
0.00128544
0.000785459
0.0076871
0.00678825
-0.0118099
0.00498098
0.00796834
1.7044e-05
0.000921671
0.00134982
0.000148901
-0.00639613
0.0166377
0.00569533
-0.0109432
0.00175171
-0.000178923
-6.82095e-05
0.00386143
0.00903884
0.0100356
-0.0146844
-0.000353641
-0.00190046
0.00109387
-3.47001e-05
0.000606377
0.0120358
-0.00108756
-0.00566438
-0.00624676
-0.00167906
0.00789364
0.00771253
0.0131193
-0.00025223
-0.00208575
-0.00112664
0.00227867
-0.00600844
0.0118356
0.0197147
-0.0139118
-0.0021481
-0.001206
0.000982026
-0.000880677
-0.00588698
0.0200747
-0.00098453
-0.00122609
0.00076272
0.00605563
0.015871
-0.000385675
0.00016366
-0.00552185
0.0108776
0.00256225
0.000581446
-0.00594955
0.00131542
0.000687724
0.000223173
0.0025414
-0.000351529
-0.0011836
0.00294908
0.00576807
0.00493838
0.00492817
0.00215937
-0.00119031
-0.000509236
0.00229477
-0.000621773
0.00171966
0.00128539
-0.0152264
0.0115964
-7.93121e-05
-0.0027724
0.0151774
0.0025071
-0.000106315
0.00204549
0.00626699
0.021612
-0.000703918
0.00672781
0.000754388
0.00129757
-0.000375897
-0.00314329
0.00137969
0.000846364
-0.00222335
0.000209122
0.000410524
0.000307079
0.0174384
-0.0168756
0.00591977
-0.00529861
0.00163704
-0.00103066
0.00437895
-0.00055837
0.00217
-0.00125852
-0.001177
-0.000502061
0.0122122
-0.0161451
-0.000407674
0.00102419
-0.00319061
0.000370019
0.00760602
-0.00954912
0.0111471
0.000719912
6.55465e-05
-0.000908572
-0.000178985
-0.0183703
0.00711794
-0.0105038
-0.00491229
0.0126248
0.0105309
-0.00256254
0.000756361
0.0146602
0.00786292
-0.00107467
0.000266331
-0.000172906
-9.34247e-05
0.0219302
-0.0142431
0.000971842
-0.0161126
0.00184954
0.00921215
0.00274546
-0.000204063
0.00119125
-0.0171273
0.0107312
-0.000744911
0.011924
-0.0137096
-0.00168623
0.000162113
-0.000241425
0.0152176
-0.0173658
0.00135912
-4.36988e-05
-0.00196858
0.00255002
-0.00225318
0.0011094
0.000176042
0.000980501
0.00260289
0.00233549
0.00212369
0.00801836
-0.00147036
0.00215808
0.00148712
0.00113044
0.00476226
0.000111146
0.000155185
0.0021762
-0.000796513
0.0044636
0.00180339
-0.000710072
0.000334176
-0.0055309
2.70886e-05
6.27435e-05
-0.0013069
-0.002362
0.00841764
-0.00247222
-0.000967565
0.000263647
0.00132848
-0.0004879
0.000269145
0.00213712
0.000141545
-0.00166203
0.0014098
0.0211445
-0.0153764
0.00521798
0.000251238
-0.00754079
0.00773396
-0.000193172
-0.000339948
0.00561859
0.00114554
0.00530038
0.00249538
0.0069857
0.00563912
0.000649046
0.00117495
0.00575017
0.000169602
-0.000927414
-0.000349716
3.23162e-05
0.0003174
-0.00434944
-0.000727426
4.58543e-05
-0.00258449
0.00132597
-0.00114655
0.000699646
0.00426887
0.00127732
-0.000520955
0.00304284
-0.00132318
0.0115587
0.0135492
-0.00897102
-0.00457821
0.014167
-0.0135491
0.0113525
0.00231316
-7.13064e-05
-7.18335e-05
0.0046237
0.0110131
-0.0125781
0.0046755
0.00944114
-0.0122135
0.018046
-0.017676
0.00103589
-2.53738e-05
-0.000719538
0.00260824
-0.000484549
-0.00195318
0.000266948
0.000783727
0.000188114
0.00239373
0.000156297
-0.00497853
0.00935748
0.00218966
-0.00391135
-0.000654906
0.00228804
0.00247422
-0.00142921
0.0209441
-0.0138262
-0.000426409
0.00181172
0.00104737
0.00299012
0.00105017
0.012021
-0.0151642
-0.00236349
0.0170237
-0.000970486
0.00120096
0.0116481
-0.0126326
-0.00162089
-0.00129675
0.00227725
0.0189252
-0.00819401
-0.00427151
0.000225865
-0.0020935
0.00242768
0.00842141
0.00409143
-0.000120194
-0.000219754
0.000680223
0.00670104
0.000145025
0.000582287
-0.000727312
0.00119863
-0.00170932
0.00290057
-0.00201567
0.00180806
-0.000662513
-0.0135631
0.0087605
0.0138594
-0.0163316
0.0119868
-0.00721931
0.0034391
0.0039828
0.00123519
-0.00062721
0.0122628
-0.0119557
0.0224037
-0.0143853
-0.00818286
0.000349716
-0.000200815
-0.00167339
0.0031605
-0.000254279
-0.000892271
-0.00081746
0.00645658
0.00145451
-0.000324072
0.0012871
-0.00049828
-0.00225695
0.00190904
-0.00125999
0.0198623
-0.0166476
0.0111167
0.00164262
-0.00158121
0.00688159
0.00702731
0.000146754
0.00857604
-0.00295745
0.0041524
-0.000973816
-0.00813382
0.00946231
0.01589
-0.0168174
-0.00223445
0.0029341
0.00229069
-0.000101021
0.00146956
-0.000433672
0.00180614
-0.00168866
-0.00443829
0.00362083
0.020237
-0.0159681
0.000303243
-0.000303243
0.00637319
0.000200815
2.23578e-05
-0.00193291
0.00208921
0.00224038
-0.000428655
9.25344e-05
-0.0022264
0.000132898
0.000344343
0.00124981
-0.00268757
0.00731127
0.000718359
0.00919518
0.00510891
-0.000433413
0.00084471
0.000202664
-0.00130481
0.00122365
0.000173745
0.00281638
-0.000317363
-0.00274398
0.00231758
0.00229765
-0.0011227
0.0137764
-0.0150833
0.00413775
-0.00466083
0.00264797
0.0121501
-0.00113701
0.00159429
-0.00054412
0.00192872
0.00216271
0.00197358
0.00157787
-4.75605e-05
-0.00036828
0.00256101
0.00122719
-0.00047255
0.000933847
-0.000461296
-0.00207784
0.00145063
-0.00139902
-0.00044163
-0.000507251
-0.000269145
0.000168846
0.00248402
-0.0114161
0.0061175
0.000926052
0.00376901
-0.000930049
0.00110839
0.00193445
0.0019759
-0.000688798
0.00316391
-0.00277041
0.0035277
0.00392414
-0.000469046
0.0006158
0.0173403
-0.0166601
0.000238411
-0.000211323
0.0134638
-0.00402267
0.0199216
-0.0115002
0.00609546
0.0204109
-0.0137099
-0.00479769
0.00823679
0.000334298
-0.0109417
0.00932086
8.15617e-05
-0.00105538
-0.000369849
0.000190112
0.00248055
-0.000167384
0.00198095
-0.000174814
0.00154223
-0.0176403
0.00944624
0.00157241
7.02082e-05
0.00198639
0.000102817
-0.00652351
0.00188537
-0.00221058
0.00602562
-0.000384198
0.000384198
0.00135785
0.00339566
0.000756738
0.00177508
0.0015523
0.000239737
0.0148655
-0.0165542
0.00182069
-0.00147944
0.000837141
0.000412668
-8.20875e-05
0.000188008
-0.00010592
0.0208127
-0.0137854
-0.000286718
0.000522917
-0.00189536
0.0022397
0.000981583
0.00251358
0.00208301
-0.000505148
0.00211543
-0.00198254
4.95113e-05
0.00259845
-0.00222016
-0.00253516
0.006156
-0.00126985
0.0019882
0.000588659
0.00296225
0.0163216
-0.0176264
0.000261212
-0.000645409
0.00484463
-0.000605444
-2.23578e-05
0.000163903
0.0014932
0.00145294
0.00221222
0.000636089
-0.00068365
-0.00742811
0.00865177
0.00147061
-0.00178798
0.00139422
-0.000664953
0.00189214
0.00781393
-0.00367618
0.000389727
-0.000419288
-0.00387763
0.00764664
0.000225767
-0.000880672
0.0177324
-0.0151714
-0.000928714
0.00185477
-0.0062075
0.00729009
0.00180131
0.000172263
0.00144661
0.0017173
0.00880298
0.0012376
0.000304627
0.00180582
7.95555e-05
0.00187152
0.0176234
-0.018065
-0.00136267
0.00155278
-0.000217791
0.001631
-0.00289268
-0.00265562
-0.00139696
0.00250536
-0.00190606
0.00200888
0.00616483
-0.00224069
-0.00114339
0.000808679
0.000333645
0.00156157
-0.00122727
-0.00103835
0.00127809
0.00177859
-0.00022629
0.00435761
-0.000829906
0.00165027
0.00156097
-0.00613918
-0.0097273
0.00250799
0.000845588
0.00397208
0.00220335
0.0010723
-0.000254743
0.00123633
0.00132325
-0.000232538
-0.0020388
5.62654e-05
0.00501635
0.00279758
0.00248118
-0.000793968
0.00127344
0.00147843
0.000296651
-0.000568187
0.00227837
0.000963425
-0.00970069
0.00822125
0.00255465
0.0178608
-0.0117653
-1.86044e-05
0.00157957
0.000105001
0.00134794
0.000794777
-0.00582874
0.00834232
-0.00107659
0.00256979
0.00415085
0.017999
-0.0119734
0.00152186
0.0025231
0.000492097
0.00113284
0.000261377
0.0180734
-0.00862717
-0.011219
0.00719631
0.00657319
0.000475071
-3.03692e-06
0.0183383
-0.0178154
2.9925e-06
0.00220923
0.000514431
0.00246061
0.000501641
-0.00733534
-0.000289764
-6.17648e-05
-0.000226409
0.00421354
0.00248865
0.00108891
0.000268939
0.00126117
0.00102334
-0.00160742
-0.000448898
0.00143747
0.00111411
-0.000724379
-0.00104893
-0.00512757
0.00211692
0.0018179
0.0014831
0.000147906
0.0181605
-0.0133159
0.00161087
0.000398006
0.00169043
0.00172029
0.00134133
-0.0139639
0.00744037
0.000339759
-0.000759047
4.20403e-05
0.00160823
0.0121963
0.012566
0.00125681
-0.00516091
0.0016307
-0.000486994
0.00133258
-0.00175348
0.00208712
-0.000113165
0.00163193
-0.000308678
-0.0036098
-0.00045421
0.000273301
-0.010575
0.00768234
0.000898391
0.000375046
0.0029891
0.00122456
0.000646963
-0.0076513
0.00845998
0.00152121
0.00138998
0.000961386
2.0391e-06
0.000769628
0.000745871
0.00145748
-0.000163903
-3.4805e-06
-0.00494479
0.00722316
0.00011193
0.000380166
0.00115977
0.0139019
-0.0150389
-0.000751432
0.0022733
1.68622e-05
0.000497569
7.39147e-05
-1.11712e-05
0.000275368
0.00037984
-0.000655209
-0.000315608
0.000371874
0.018072
-0.0169997
0.00117283
0.000691023
0.00128941
0.00121595
5.0449e-05
0.000972895
0.00646244
-0.00398126
0.0150389
-0.015969
-0.0139019
0.0125029
-0.000516981
0.00195445
0.0014578
-0.00235377
0.00124751
0.00118891
-0.00039413
0.00114494
-0.000377117
0.00171844
-0.00124947
0.000681288
-0.0163388
0.015969
0.00106674
0.000623683
0.000412755
-0.000238518
-0.000174237
0.00100194
-0.00122835
-0.00127426
0.00167227
0.00681361
-0.00401603
0.00121465
0.00042986
0.00505236
-0.00256371
-0.000349716
-0.000185928
0.00109125
0.0157949
-0.00922172
0.000652708
0.0005189
0.000737906
0.000812858
-0.000344539
-0.00585137
0.00766927
0.00402962
0.0145432
-0.0103923
-0.000809298
-0.000218897
0.00193919
0.00011397
-0.0145181
0.000256581
0.00151764
0.00317968
-0.00106276
-0.00886939
0.00782047
0.000397028
0.00101697
0.000893946
0.00256984
0.0153515
-0.0111379
-0.000700426
0.00134739
0.000548018
0.00137179
0.000560745
0.000927204
-0.00104037
-0.000978482
0.00236846
0.0145181
-0.0147359
-0.00104798
0.00220774
0.000595778
-0.0125029
0.0102923
-9.06278e-05
3.27619e-05
5.78659e-05
0.00123858
0.00203562
-0.000409419
-0.00536868
0.00138743
-0.00353663
-0.0141139
0.00548676
-0.000640138
0.00141518
0.00021552
0.00073091
-0.00117981
-0.00091985
0.00209268
0.00205904
0.0147359
-0.0149684
0.000906473
9.06278e-05
5.05339e-05
-0.000141162
0.00134426
0.000176951
0.00135345
0.0169833
-0.0139942
0.000739961
-0.00667355
-0.000779892
0.00115177
-0.000247532
0.000950128
0.00144493
-0.000540002
0.0019978
-0.0062291
8.99192e-05
0.00743436
0.00103633
0.000615976
-0.000301147
-0.00677067
0.0074617
-9.86038e-05
-0.000694007
0.00190996
-0.00182986
0.00297479
3.4805e-06
0.000265458
-0.00181221
0.00290346
0.00054276
0.00112951
2.69813e-06
0.00121195
0.0149684
-0.0149715
-0.00272448
0.00337719
0.00116644
-0.00372111
0.00763669
-0.0102923
-0.0053368
0.00685444
5.65746e-05
-0.000127881
0.000740604
-0.0031827
0.00329667
0.000518588
-0.000863127
0.00035242
-0.00919456
0.00684079
0.00139918
0.00209268
-0.0010757
1.68047e-05
0.00123071
-0.00313408
0.00353111
-0.0017452
0.00263915
4.86227e-05
-0.00013071
-1.63806e-05
0.00628028
-0.00489285
-0.00330202
0.00385004
0.0115713
-0.00437495
0.000842565
-0.000412705
0.000898595
-0.00128168
-6.39976e-05
-0.00563163
0.00700341
0.000556248
0.0126413
-0.0086117
-0.000269145
-0.000780219
0.00159308
0.000462544
-0.00372028
0.00431605
-0.000149762
-0.00137409
0.000202427
-0.000521781
0.0149715
-0.0146982
0.00224898
-0.00228059
0.00318706
0.00127882
-0.0127699
0.00354817
0.000943477
-0.00543404
0.000541194
0.00122282
0.00139077
-0.000239001
0.000232324
0.000262822
0.00641035
0.00602883
-0.0045839
-0.000457391
0.00169597
-0.00103015
0.0012071
0.000317235
-0.00707817
0.00666875
-0.00412346
0.00486342
-0.000448845
0.00180229
0.000250311
4.58543e-05
0.00139867
0.000194491
0.000594784
0.000162591
0.00317568
-0.00255971
0.00402689
0.0125291
-0.00995925
0.000210641
-0.000229245
0.000161941
-0.000105367
0.00154896
0.0045808
-0.00354447
0.000229087
3.7735e-05
0.000622871
0.000651998
4.00919e-05
-0.00069209
-0.000423052
0.00017552
0.000129762
0.000315061
-0.00728313
-0.000492774
0.00165922
0.00139114
0.00119143
-0.000241301
0.000219924
-0.000521071
0.0161438
-0.0141082
-0.00223772
0.00297833
0.000383526
0.000719176
-0.000403041
0.000304438
0.000778725
-0.000463079
0.00104537
0.00210331
-0.00175089
0.00773443
-0.00719324
-0.000265458
0.000826204
-3.1047e-06
0.0146982
-0.0144416
-4.10013e-06
0.00113361
-0.0058351
0.0067337
-0.000229204
0.00162839
0.000401424
0.00809745
-0.00750266
0.000192594
-0.000368781
0.000153217
-0.000104594
0.000773317
-0.000211129
-0.00696598
0.00790946
0.00116831
0.000224893
0.00168506
-0.00460355
0.0051598
0.00158898
-0.00326271
0.00372525
2.53358e-05
-0.00923461
0.00569798
0.00732587
-0.00732898
0.0021496
-0.0004564
-0.000394415
0.000155415
-0.00691264
0.00813546
0.00979016
-0.0004661
-7.56459e-05
-0.0105231
0.00191139
-0.00714596
0.000213734
-0.000735515
0.00769882
0.000398626
0.00146677
7.88815e-05
-0.0003174
0.000768447
0.00715413
-0.00752291
-0.000176789
0.000259868
-0.000101295
0.00149997
0.00050558
-0.00697492
-0.000203128
0.000802281
-0.000569956
-0.00239382
-0.000227521
0.001701
0.00150371
-0.000615117
0.0111376
-0.00888865
-0.00041269
-0.00686355
0.00548946
-0.0145181
0.000116174
-8.99778e-05
-0.0112216
0.0116202
0.000280712
0.00126824
-0.000174846
-1.59105e-05
-0.000948608
-0.00461593
0.0052388
0.000996822
-0.0115336
0.00486008
0.0119182
-0.012095
-0.00700342
0.00817173
-0.014458
0.0144416
-9.06278e-05
-0.00129604
0.00105473
7.70551e-05
-0.000207765
0.000696598
-8.89311e-05
-0.00249635
0.00321552
-0.00575665
0.00614018
0.000912043
0.000747175
0.00727555
-0.00773195
0.000977046
0.0019091
0.00043485
0.00125021
-0.0102923
-0.000194798
0.00113204
0.000158531
-8.14758e-05
0.00204565
-0.000307337
0.00048198
-0.000163994
0.000479055
0.000577117
-0.000788246
-0.000479055
0.000741877
0.00063516
0.000138158
-0.000826204
0.00114344
-9.66195e-05
-0.000310869
8.16242e-05
-0.000741877
0.000992188
-0.00907119
0.00469624
0.000105367
-8.00307e-05
-0.000247359
-0.00349217
0.00389359
-0.00402689
0.00030578
-0.000992188
0.00118668
0.0117186
-0.0118935
-0.00118668
0.00134927
0.00117839
0.000211323
-6.41543e-05
-0.000147168
-0.00134927
0.00157836
0.000543876
0.000170124
-9.62092e-05
-0.000376378
0.0121896
-0.000569401
-0.00157836
0.00170812
-0.000515459
0.00201917
0.00112352
-0.00034479
6.52033e-05
0.00107352
-0.0119668
0.0124724
0.000233085
-0.0119393
0.0129362
0.00135683
0.00010994
-0.000221198
-0.00258393
0.00280513
0.00081569
0.000885306
0.000163994
-8.57882e-06
0.0125797
-0.0118113
-0.00022095
0.00530741
-0.00625602
0.00922232
-0.00731093
0.00193482
0.000710825
-0.00157747
5.39366e-05
-0.00170812
0.00190071
-0.00512328
0.00317648
-0.0104596
0.00208393
-0.00533036
0.00525472
-0.00242454
-0.000158398
0.0120272
-0.0122746
0.00149498
0.000333664
-0.00711503
0.00809207
0.00105231
-0.000479092
-0.000573216
0.0108096
-0.010113
0.0143723
-0.0129811
0.000133768
-0.0122758
0.0134078
0.0010567
0.0021195
-0.0002104
8.57882e-06
-9.85566e-05
-0.00109135
0.00234156
-0.00251917
0.00326635
9.85566e-05
-0.000326078
0.00541725
-0.00535205
-0.00337321
-0.0123084
0.000222838
-0.00867287
0.00169795
0.00544657
0.000693604
-0.00190071
0.00216058
0.000640409
-0.00130284
0.00237636
0.00069635
0.000326078
-0.000529206
0.00128081
0.00065401
-9.15661e-05
0.000661084
0.00222944
0.00092782
0.000264073
0.000742811
-0.0065761
0.00418228
0.00216611
0.000660371
3.88281e-05
-0.000135448
0.00525177
0.000103324
-6.44959e-05
-0.00108664
0.000264061
-0.000838763
0.0102402
0.010113
-0.0104894
-0.0034643
0.00394628
8.00307e-05
-2.60941e-05
0.00174874
0.000592818
0.0112823
-0.0137069
2.18482e-05
-0.00114344
0.00105451
9.7415e-05
-0.000563515
0.00243552
-0.000351585
-0.00549638
-0.00559954
-9.77126e-05
-0.00746932
0.000158386
-0.00577137
0.000529206
-0.000836543
0.00630732
-0.00481233
0.00128581
-0.000231079
0.00223163
-6.5513e-05
-0.00167032
0.00259814
-0.000992281
0.00240275
0.000429286
0.000941022
-0.0120655
0.0132439
-0.00216058
0.00270446
0.00222512
0.000706039
-0.012074
0.0124077
-0.00253331
0.00327612
-0.000146813
4.91001e-05
-0.0127712
0.0138279
-0.00030578
8.48301e-05
0.00660094
-0.0043715
0.00188004
-0.00722136
0.00791497
0.000955268
0.0104894
-0.0103556
0.00217645
0.000226302
0.0102447
-0.0100864
0.000836543
-0.000994941
0.000733034
0.00294604
0.00211094
0.000870709
-0.005308
0.00554109
-0.00195361
0.00254643
0.000636659
0.00011317
-0.00129298
0.000211323
-0.00332992
0.00402627
0.0112996
-0.0121383
0.00583053
-0.00360542
0.0117646
-0.0111242
0.000644527
2.60941e-05
-4.24585e-06
-0.0102402
0.0104631
-0.00255719
0.00326323
-0.00160417
0.00348421
-0.0104631
0.0111242
0.000994941
-0.00073088
0.00117118
-0.000460356
-6.51884e-05
-0.0117646
0.0124249
0.00178861
-0.0018293
0.00227273
0.000273702
0.00291853
-0.000807598
0.00144315
-0.00721452
0.000718932
-0.00240728
0.00145903
0.00527832
-2.65474e-05
-0.00270446
0.00261289
0.00249903
-5.32884e-05
-0.010113
0.0103556
-0.0113479
0.000342187
0.00419168
0.00131437
-0.000121208
-0.00406682
0.00876306
-0.011272
0.00118563
-0.00337245
0.00410549
-0.00646774
0.00309453
-0.00251029
0.00315481
-0.0063955
0.00232869
-0.00982883
0.000616366
0.00073088
-0.000440437
-0.000290442
0.00153002
-0.00702641
-0.00228546
4.6015e-05
-0.000195777
-8.48301e-05
1.96417e-05
-0.0056845
0.000752944
0.00322506
-0.000726031
-0.00828141
0.0081602
-0.00938249
0.0108415
-0.00105451
0.000823429
0.0123084
-0.0120443
0.00241746
-0.00526297
0.00297751
-0.007438
0.00741146
-0.00336804
0.00408698
-0.00246327
-0.00456314
0.0079519
-0.00663753
-0.0124249
0.0130616
0.000653817
-0.0123084
0.000262758
0.0127353
-0.01178
0.0114394
-0.0132687
-0.00228478
0.00255849
-0.00806281
-0.00532808
0.00575736
0.000476964
-0.0102506
0.0120393
-0.013256
0.0141267
-9.64863e-05
3.19904e-05
-0.00330097
0.000870028
-0.00536199
0.00206102
-0.000329517
-0.00122228
-0.00275081
0.00350375
0.0113479
-0.0137552
-0.00107129
-0.00363978
-0.00442303
0.0132687
-0.012083
0.000737442
0.00855676
-0.00613929
0.00215379
0.0004047
0.000571865
0.00142775
-0.0114394
0.0117815
0.00606262
-0.00544625
-0.00375087
0.00607956
0.00073088
-0.00238448
-4.73863e-05
0.000596925
-0.00545888
0.00170801
-0.00599505
0.000310548
0.00087722
-0.00544036
0.00191923
0.000590869
-0.00511783
-0.00777784
0.00670655
0.00133617
-0.00165653
-0.00378383
-0.00152595
0.00239598
-0.0104716
0.000642819
4.24584e-06
2.77446e-05
0.0071754
-0.00574764
-0.0101611
0.00120803
-0.000267012
-0.00137058
-0.0135304
0.0123081
-0.00788772
0.00550324
-0.0136776
0.0141546
0.0135304
-0.0138599
-0.00339786
-0.00261289
0.0025596
0.0010361
0.00087331
-0.00046861
0.0019778
-0.00562658