/*--------------------------------*- C++ -*----------------------------------*\
  =========                 |
  \\      /  F ield         | OpenFOAM: The Open Source CFD Toolbox
   \\    /   O peration     | Website:  https://openfoam.org
    \\  /    A nd           | Version:  8
     \\/     M anipulation  |
\*---------------------------------------------------------------------------*/
FoamFile
{
    version     2.0;
    format      ascii;
    class       volVectorField;
    location    "0.8";
    object      U;
}
// * * * * * * * * * * * * * * * * * * * * * * * * * * * * * * * * * * * * * //

dimensions      [0 1 -1 0 0 0 0];

internalField   nonuniform List<vector> 
1924
(
(-0.271851 -0.235621 1.98798e-17)
(0.108872 -0.243992 3.63805e-17)
(11.1916 6.52396 7.45045e-17)
(11.4722 6.20093 3.90718e-17)
(1.02406 0.383973 2.57009e-17)
(10.9551 6.47349 3.00698e-17)
(9.97195 5.49705 1.42498e-17)
(9.32657 5.61541 1.27575e-17)
(8.25254 4.44299 2.30606e-17)
(11.0547 5.78651 9.13874e-17)
(7.83742 4.66082 2.77281e-17)
(7.16074 3.66945 3.65513e-17)
(-0.729366 -0.120714 6.89316e-18)
(6.50504 4.30728 4.09778e-17)
(-1.78953 3.26175 7.76913e-18)
(-2.49836 4.1505 5.42699e-18)
(-0.666162 -0.492482 7.3711e-18)
(5.32171 3.08532 3.97962e-17)
(-0.290132 -0.208212 1.89847e-17)
(4.36344 3.15162 4.12744e-17)
(0.221322 -0.243885 5.50537e-18)
(-1.68322 -2.87923 1.6492e-17)
(-0.723307 -0.274093 5.41209e-18)
(2.96867 1.65253 4.03673e-17)
(-0.975963 -3.03218 1.30516e-17)
(2.41622 -0.592528 2.58434e-17)
(3.045 1.41942 3.5183e-17)
(8.48472 2.0357 1.0085e-16)
(2.86053 1.57764 6.79434e-17)
(5.46127 -0.178566 1.86293e-17)
(-1.08114 -0.21558 8.4442e-18)
(-0.562415 -3.11608 1.90221e-17)
(-0.274543 -0.028504 1.99752e-17)
(-0.638339 -0.440595 7.65017e-18)
(8.77952 3.10171 1.22059e-16)
(-0.608332 -0.502987 6.53183e-18)
(0.813605 -2.75478 2.24092e-17)
(5.46675 2.6559 9.80076e-17)
(3.93247 -2.1764 2.0113e-17)
(-1.15697 -0.220766 9.062e-18)
(1.80308 -1.55019 2.82526e-17)
(0.176053 -0.268221 5.86284e-18)
(2.17315 -2.63201 2.70729e-17)
(-0.23557 -0.271551 5.77329e-18)
(12.7684 3.85501 7.55738e-17)
(0.301994 0.165665 5.01536e-17)
(-0.631725 -0.531456 2.84812e-18)
(13.169 5.69579 4.85302e-17)
(0.19088 0.0046037 1.17013e-18)
(0.126493 -0.128739 3.23566e-18)
(0.448834 -0.476477 3.61091e-18)
(-0.701649 -0.01731 6.58413e-18)
(-1.46843 -2.76387 1.16548e-17)
(0.51875 -0.455771 1.66181e-18)
(-0.611476 0.594702 2.09355e-17)
(11.4389 5.17558 8.82041e-17)
(-0.37831 -0.11791 1.62093e-17)
(14.1013 3.88276 8.74903e-17)
(11.0151 2.49585 8.15735e-17)
(2.91368 5.03335 5.04906e-17)
(-0.117738 -0.370945 4.44897e-18)
(-1.2415 5.97138 6.97873e-18)
(0.0802678 -0.401703 6.33032e-18)
(5.67992 0.447368 1.36744e-17)
(0.612354 -0.473381 4.39309e-18)
(12.8152 5.61101 3.94114e-17)
(0.289995 8.71086 3.56682e-17)
(-0.859242 -0.699317 5.62695e-18)
(1.82068 1.31024 6.5108e-17)
(0.409885 -0.451663 3.26042e-18)
(-0.453092 0.0354328 1.03257e-17)
(-1.75135 6.91354 1.08393e-17)
(4.24937 -1.32715 1.24456e-17)
(5.02205 -1.21998 5.82959e-18)
(3.49439 -3.08059 6.39569e-18)
(-1.19667 0.974812 1.17281e-17)
(10.0096 3.59072 1.59533e-17)
(3.73225 -2.90173 1.61724e-17)
(12.1243 5.9104 1.89871e-17)
(0.341086 -0.471291 1.44202e-18)
(3.84154 -4.77928 -5.02806e-18)
(3.5267 3.04067 4.08476e-17)
(8.69772 8.68207 3.80411e-17)
(0.260607 -0.191602 6.40822e-18)
(-0.177072 -0.134177 1.90704e-17)
(-0.515092 -0.707225 4.46744e-18)
(12.593 3.32107 1.01895e-16)
(-0.464609 3.95786 1.05383e-17)
(0.120947 -0.0954812 2.68245e-18)
(-0.527684 -0.0921717 9.81105e-18)
(1.34647 9.30384 3.93721e-17)
(3.2915 2.18794 3.04839e-17)
(-0.256177 0.60702 3.32293e-17)
(1.55189 1.40693 4.55886e-17)
(-0.885759 0.214322 8.48955e-18)
(0.612329 -0.351101 1.06486e-17)
(9.83138 3.7416 1.02174e-17)
(3.55173 -4.0214 1.49376e-18)
(3.01115 5.31616 4.7555e-17)
(-0.840793 0.745909 9.54008e-18)
(9.50475 6.07598 1.04216e-16)
(-0.856559 -0.0339906 7.01841e-18)
(3.08275 6.32104 5.23723e-17)
(3.32486 3.5438 2.98503e-17)
(0.939897 1.54411 3.78711e-17)
(2.60328 -4.21403 2.50819e-17)
(7.41454 5.26475 1.03988e-16)
(0.0324722 0.821669 2.43676e-17)
(2.64567 3.62288 4.83757e-17)
(2.04928 1.75205 5.89311e-17)
(8.27804 2.92143 9.41495e-18)
(4.26296 2.98056 8.71594e-17)
(5.40517 2.33953 9.89166e-17)
(8.35915 3.99423 4.58821e-17)
(10.2746 3.31732 1.01146e-17)
(0.130912 -0.13278 5.54108e-18)
(10.7797 6.89996 8.06521e-17)
(-4.22369 3.1574 1.12718e-17)
(1.1984 -0.666424 8.55732e-18)
(8.34594 2.10909 4.97271e-18)
(-0.101607 -0.0936821 1.95704e-17)
(0.109463 -0.00498239 1.64748e-19)
(0.190363 -0.189101 4.34905e-18)
(0.0686877 -0.406111 1.25642e-17)
(-1.11776 8.52846 2.59932e-17)
(2.13558 2.37192 5.82219e-17)
(-0.978049 0.467798 1.15753e-17)
(2.44338 -4.12296 2.02722e-17)
(3.64372 2.65928 7.95596e-17)
(0.0825999 -0.0130458 -4.68057e-19)
(6.95335 1.54478 2.07007e-17)
(8.95951 6.31165 1.03737e-16)
(-1.11322 0.784663 1.71589e-17)
(9.82928 5.46535 5.11268e-17)
(-1.06861 0.119843 6.39663e-18)
(3.7426 3.18606 7.13882e-17)
(6.9146 4.14052 1.08467e-16)
(6.33249 4.09213 1.03158e-16)
(2.15532 1.53911 3.54213e-17)
(7.54911 3.27062 1.31558e-16)
(12.9916 5.25136 6.87544e-17)
(-0.771012 8.81937 1.91517e-17)
(-2.18237 -2.11102 1.40017e-16)
(-0.108748 -0.0712251 2.31487e-17)
(10.7713 7.42395 6.005e-17)
(0.0745915 -0.0136105 -4.7369e-19)
(-0.258827 0.495883 2.28242e-17)
(-1.07482 0.249958 8.09857e-18)
(2.14827 2.94136 4.31948e-17)
(1.22981 -0.366133 1.00443e-17)
(5.53328 6.09243 4.5194e-17)
(0.0970406 9.1482e-05 4.78117e-19)
(-0.894092 0.138604 1.00806e-17)
(9.67007 7.45836 8.71306e-17)
(10.8215 7.29127 3.77477e-17)
(1.66379 2.09541 5.27592e-17)
(0.107261 0.0158934 -2.87751e-19)
(8.5639 5.08674 1.20114e-16)
(6.6662 1.36702 3.01752e-17)
(8.80342 10.7118 2.6733e-17)
(8.16295 3.12101 3.45379e-17)
(-1.39791 0.828432 1.43971e-17)
(10.5074 7.84417 6.48503e-17)
(0.111503 -0.0042398 9.2318e-19)
(4.14379 3.27172 2.9167e-17)
(3.66504 3.30034 7.03426e-17)
(4.32746 4.06145 7.91998e-17)
(0.111782 0.0182821 -3.4488e-19)
(7.05222 0.786817 1.18741e-17)
(5.12532 3.93603 8.97063e-17)
(-0.444437 -0.0965056 2.13456e-17)
(10.1573 7.4621 2.7597e-17)
(1.83409 -5.19725 1.51634e-17)
(3.11813 3.26582 2.61006e-17)
(12.6856 5.76534 6.34349e-17)
(-1.5239 0.275417 2.78852e-18)
(7.13425 1.51326 3.34835e-17)
(-0.172231 -0.217067 1.49757e-17)
(-0.535696 -0.457744 6.47928e-18)
(10.2711 8.52806 4.75967e-17)
(1.48347 2.01491 4.68696e-17)
(-4.87138 1.36956 1.3692e-17)
(5.93531 -0.388858 1.12783e-17)
(4.33157 4.09097 7.90242e-17)
(0.199367 0.00573483 -1.20746e-20)
(2.12849 0.314236 3.95471e-17)
(-0.643376 -0.0928593 1.23032e-17)
(2.99142 3.52439 5.53447e-17)
(6.42587 0.29975 2.37019e-17)
(8.20582 2.44889 1.41909e-17)
(-0.81815 -0.0384983 1.94567e-17)
(9.43847 6.67064 1.21277e-17)
(6.05017 0.112396 3.58079e-17)
(10.0584 8.22849 2.94288e-17)
(5.97337 5.93178 8.56644e-17)
(0.0895672 -0.00295654 7.5571e-19)
(4.10504 4.82096 6.31797e-17)
(-1.60484 0.507693 9.10084e-18)
(-0.534252 0.942242 4.84542e-17)
(-1.82344 0.538313 5.68386e-18)
(-0.123909 0.0202359 2.23163e-17)
(1.7365 -0.257621 5.58092e-17)
(5.95884 4.96253 8.91622e-17)
(8.5804 6.73527 1.50801e-17)
(-0.555623 -0.14057 1.75759e-17)
(1.2506 2.12713 3.66927e-17)
(9.19112 8.52001 1.95437e-17)
(-0.603963 -0.250856 1.36377e-17)
(-1.26902 0.2435 9.56064e-18)
(-0.270166 0.0996693 1.10416e-17)
(0.112242 -0.00609625 1.0624e-18)
(6.70866 5.03632 9.90358e-17)
(0.786514 1.90917 3.94959e-17)
(5.80491 5.98339 8.53126e-17)
(2.90871 3.45246 4.87136e-17)
(3.16395 -3.70271 2.18943e-17)
(1.81531 2.11471 2.45376e-17)
(-0.993211 0.0961527 1.27261e-17)
(8.53483 7.67793 1.50729e-17)
(1.46975 -5.14928 1.73548e-17)
(0.735532 1.07052 3.85578e-17)
(12.315 7.06767 7.2635e-17)
(6.20781 5.32957 9.42409e-17)
(0.087099 2.08318 2.80938e-17)
(7.80108 5.84865 2.59849e-17)
(3.96331 4.72796 5.57562e-17)
(5.8643 0.0110271 3.42029e-17)
(2.5388 -5.58023 4.72878e-18)
(6.95748 7.7767 8.19372e-17)
(-1.81247 0.234978 -2.26729e-18)
(-0.580549 0.276062 2.04422e-17)
(2.03289 7.75734 5.19886e-17)
(-0.670379 1.06582 2.95847e-17)
(-0.453934 0.125244 1.33038e-17)
(4.66861 5.97479 6.45922e-17)
(0.457156 4.23245 1.00734e-17)
(-0.370177 0.120145 2.45775e-17)
(7.47993 7.82066 1.37895e-17)
(7.6084 6.89905 8.90202e-17)
(0.0887704 -0.00453088 6.11109e-19)
(-5.59026 0.774937 1.76055e-17)
(0.248597 1.78131 8.17856e-18)
(0.310736 0.0479714 2.4733e-17)
(-0.503262 -0.318356 1.46237e-17)
(7.02644 3.90058 2.46744e-17)
(-1.1678 0.145568 9.05259e-18)
(7.03459 6.10738 2.75321e-17)
(11.2482 5.05527 3.14411e-17)
(4.69328 -1.83303 1.73031e-17)
(2.06088 -5.47016 7.71412e-18)
(4.17746 2.66748 4.1103e-17)
(0.110488 -0.0100207 6.2775e-19)
(6.71978 7.94857 8.71087e-17)
(7.65425 6.12271 9.91621e-17)
(5.48235 -0.831466 3.2526e-17)
(-0.766207 1.23361 1.91308e-17)
(1.62659 -2.13378 3.68043e-18)
(-0.889231 -0.225372 -1.36888e-17)
(0.251493 1.088 4.09573e-17)
(6.84469 7.08951 2.01593e-17)
(2.81589 2.93454 6.49631e-17)
(7.67625 7.60406 8.84559e-17)
(3.08454 2.31724 2.33942e-17)
(4.45895 -2.20459 2.11701e-17)
(0.340958 -2.94485 1.84488e-17)
(2.05575 -4.83015 1.12902e-17)
(0.351651 -0.275786 4.315e-18)
(1.287 -5.74027 1.25534e-17)
(-0.794162 0.926013 1.70761e-17)
(0.230475 0.584626 5.76337e-17)
(-1.63437 -0.548978 -5.7724e-18)
(7.24959 3.79306 4.83306e-17)
(-0.625336 -0.513654 4.12811e-17)
(0.770443 1.46096 1.45828e-18)
(1.78809 7.44013 4.99741e-17)
(3.35166 -5.42888 -2.23748e-18)
(6.48553 5.60443 4.09337e-17)
(4.52333 5.7867 6.07698e-17)
(8.91224 7.20646 8.9372e-17)
(-1.04439 0.877209 -4.69694e-18)
(-0.0801202 0.0623632 1.90569e-17)
(0.0838361 -0.00958682 3.17039e-19)
(2.04282 8.65948 5.2089e-17)
(7.08921 9.4724 6.80512e-17)
(-0.103333 -0.0995379 2.03603e-17)
(6.62363 0.19085 1.90843e-18)
(4.96179 -1.47279 2.09296e-17)
(0.0962767 -0.0232438 -1.56931e-19)
(5.92587 7.28859 1.9759e-17)
(-0.254609 1.40596 -3.817e-18)
(8.62494 8.92584 6.80056e-17)
(2.84141 -3.82302 1.75938e-17)
(4.77323 6.8068 6.34986e-17)
(-1.42993 -0.396472 1.83405e-17)
(0.113836 -0.175646 3.9234e-18)
(3.81602 2.43153 2.38893e-17)
(-1.24254 1.42876 9.01078e-18)
(-0.540659 -0.247255 1.05911e-17)
(1.11913 -5.51499 1.56058e-17)
(-1.70063 -0.251891 1.55279e-17)
(0.0683184 -0.0143314 -5.52402e-19)
(9.01581 8.06437 8.13751e-17)
(-0.486841 -1.14342 1.41155e-17)
(1.44184 2.07239 1.91433e-17)
(5.60109 5.92418 4.36415e-17)
(1.92898 2.11942 5.3866e-18)
(0.401859 -0.362363 4.14252e-18)
(0.0680329 -1.59163 1.09111e-17)
(-1.33211 -0.822305 -9.61445e-18)
(13.6518 7.56705 7.06872e-17)
(-1.0382 -0.0794146 9.6988e-18)
(0.749632 -0.183462 1.07604e-17)
(6.65605 9.56935 7.38316e-17)
(-0.816336 -2.62942 2.00776e-18)
(5.10859 -1.45287 2.91335e-17)
(-0.206836 -0.123862 6.3022e-18)
(2.75189 2.7539 5.80666e-17)
(5.40907 6.85901 3.31515e-17)
(8.38774 9.57365 7.07225e-17)
(4.35697 4.45573 7.24918e-17)
(2.37325 -4.76349 1.80962e-17)
(-1.37625 -1.25228 -7.93581e-18)
(9.67519 8.70881 5.96367e-17)
(6.48801 3.17376 4.37975e-17)
(3.24001 2.25819 3.7009e-17)
(3.56325 -6.18827 3.10977e-18)
(1.58122 2.86789 2.03219e-17)
(0.167486 0.063952 -9.81825e-18)
(11.0893 5.26954 2.76868e-17)
(4.6831 -1.345 2.11867e-17)
(-1.21326 0.179175 -1.10806e-17)
(0.249868 8.02931 2.80802e-17)
(-0.320592 -2.05058 3.87197e-18)
(4.52228 4.71659 4.20608e-17)
(0.940068 -5.57659 1.34335e-17)
(4.57268 6.5319 6.00271e-17)
(2.45015 6.04304 4.35263e-17)
(8.25404 9.99418 4.44924e-17)
(6.24075 10.4149 5.11307e-17)
(9.47377 9.42572 4.97523e-17)
(3.17712 -6.28381 -1.17615e-19)
(8.24444 3.81397 5.57137e-17)
(-1.03664 -2.93936 7.98621e-18)
(-0.756754 -0.0128482 1.11082e-17)
(-2.36344 0.662174 8.24595e-18)
(-3.13488 5.82179 1.43191e-17)
(-0.525471 -0.271948 3.20393e-17)
(-1.68237 7.81863 2.60675e-17)
(0.680736 -0.112646 1.11456e-17)
(2.28473 1.16679 2.52579e-17)
(1.39352 -2.27276 2.09113e-17)
(3.60483 2.59857 4.52664e-17)
(2.37389 1.97126 2.88111e-17)
(-2.18464 -1.39216 1.30026e-17)
(-1.04202 -0.1474 6.98164e-18)
(2.10831 -6.47516 3.59786e-18)
(0.080576 0.0472116 -1.60877e-18)
(4.33147 6.94101 3.02329e-17)
(-1.83556 -2.32943 1.70925e-17)
(0.569571 -0.319261 9.35482e-18)
(4.35559 7.38593 5.89051e-17)
(-2.50361 -1.03802 1.09974e-17)
(-1.70659 -1.66242 1.1133e-17)
(1.50891 7.14919 4.66803e-17)
(1.1138 -2.45828 2.10297e-17)
(9.0493 9.19769 2.93663e-17)
(-0.975635 -2.57045 6.02344e-18)
(-1.03473 -2.16959 7.19009e-19)
(5.84306 10.4591 5.11289e-17)
(7.78649 10.5461 4.46443e-17)
(-0.254001 -2.73708 4.60772e-18)
(4.26285 4.34414 6.9623e-17)
(0.231034 -2.5121 1.8818e-17)
(-6.11685 -0.297181 1.16843e-17)
(2.85066 0.514543 1.80438e-17)
(0.105608 -0.491184 9.85266e-18)
(-3.02265 -0.610088 9.29354e-18)
(-2.91756 1.48445 8.07445e-18)
(-0.576873 -2.7066 1.35886e-17)
(-2.57507 7.18689 2.93289e-17)
(-3.5964 5.63123 3.17531e-17)
(1.31454 -6.3811 5.92983e-18)
(1.55953 2.92288 1.25034e-17)
(5.38649 6.12179 8.07429e-17)
(-1.47394 -0.961065 -9.35373e-18)
(0.459752 -3.21372 7.34648e-19)
(1.08699 -5.55861 1.17948e-17)
(0.87392 7.18355 4.07366e-17)
(2.34407 -0.665831 4.04817e-18)
(8.46356 9.67659 2.40306e-17)
(5.09089 4.85766 2.86375e-17)
(-0.0831868 -1.43849 2.2371e-18)
(2.87702 4.06809 3.4263e-17)
(-0.178921 7.40226 2.78254e-17)
(6.72285 10.1544 2.58621e-17)
(-0.966467 0.493573 1.24972e-17)
(1.3183 -1.58896 5.32401e-18)
(-0.76067 -2.57111 9.66892e-18)
(3.92536 -2.47421 1.55378e-17)
(-4.55105 4.01886 1.50958e-17)
(0.0676584 -0.0136149 -2.02061e-19)
(0.812583 -6.28867 8.27674e-18)
(-0.982067 0.101759 9.49422e-18)
(-0.721921 0.879873 1.7229e-17)
(0.090592 0.0117757 -2.82456e-19)
(2.28521 5.33277 3.44792e-17)
(1.87636 -4.74531 -1.73812e-18)
(-1.20577 7.22067 2.78053e-17)
(-1.02616 -2.63331 2.16435e-17)
(1.11081 -1.42269 1.35767e-17)
(3.96004 7.13385 6.09888e-17)
(0.219191 -0.932171 3.21373e-18)
(3.29267 5.93131 3.11435e-17)
(7.56183 8.86746 1.64766e-17)
(4.97341 10.7574 3.89801e-17)
(1.20688 1.60133 1.4987e-17)
(3.1077 -6.74226 2.70472e-18)
(-3.2098 -1.99968 9.37233e-18)
(0.384635 -0.858909 3.07385e-18)
(9.40191 4.12816 1.38026e-17)
(-2.93946 -2.09148 8.55029e-18)
(-1.21377 -2.27555 4.41331e-18)
(2.59472 -5.43473 -1.38571e-18)
(-0.755433 -0.301979 7.22668e-18)
(0.445002 -1.97444 1.94092e-17)
(-2.62289 -3.00435 5.66592e-18)
(4.21643 -2.78963 2.18277e-17)
(2.0163 -4.23689 1.17092e-17)
(-0.838561 -1.92628 2.401e-18)
(2.97922 1.45916 1.84072e-17)
(1.52796 5.65872 3.70808e-17)
(3.20761 -6.98466 3.11521e-18)
(2.84369 2.39688 2.87407e-17)
(0.945885 -0.20788 4.8914e-18)
(6.18774 10.5912 2.83462e-17)
(2.39668 0.173674 1.09128e-17)
(-1.98689 -3.28756 3.34656e-18)
(0.332174 -0.32741 3.98411e-18)
(6.61824 9.24119 1.31994e-17)
(0.0494633 -1.91787 1.45532e-17)
(-1.50535 -1.33796 -4.52864e-18)
(1.49934 -0.832196 3.97741e-18)
(5.17185 5.95684 7.60891e-17)
(-0.0828132 0.744864 -9.88031e-18)
(-2.88936 6.33545 2.69417e-17)
(7.41023 6.23732 1.17755e-17)
(3.22297 7.88094 5.61794e-17)
(0.28155 -6.27177 7.83485e-18)
(3.16696 3.80383 2.95494e-17)
(0.716424 6.12269 3.82364e-17)
(-4.40203 0.630163 1.26296e-17)
(-0.597985 -1.43611 2.98483e-18)
(5.71944 7.55524 7.69556e-17)
(2.93243 -2.25536 1.57413e-17)
(1.2115 -0.792904 7.07754e-18)
(3.9174 4.90166 4.62747e-17)
(-0.783393 -4.93099 -5.64621e-19)
(-4.31225 -1.10293 1.14359e-17)
(1.01404 0.125304 4.00737e-18)
(-4.52637 4.56862 3.20757e-17)
(2.89253 -7.22784 -1.91975e-18)
(-0.693972 -1.91982 6.64783e-18)
(-0.0552548 -0.35833 5.64318e-18)
(1.07966 0.143524 9.62511e-18)
(-1.09069 0.0261286 8.9637e-18)
(-0.109427 6.09995 3.63906e-17)
(-1.56191 6.02358 2.5686e-17)
(4.56723 10.6564 4.45166e-17)
(5.77233 8.3538 1.53334e-17)
(12.2874 6.8381 4.43184e-17)
(0.800428 -0.866091 1.4752e-17)
(0.182946 -0.545662 7.31955e-18)
(1.11199 -6.04576 1.82216e-17)
(0.364348 -5.38852 -1.20373e-18)
(-0.669576 -1.8892 -4.10733e-19)
(2.5322 -7.10725 -2.64842e-18)
(3.25535 -2.9106 1.31624e-17)
(2.20621 6.03576 2.51252e-17)
(-3.5333 5.82359 2.83782e-17)
(-5.26663 2.74083 2.37711e-17)
(2.95121 7.32659 5.35493e-17)
(5.0492 10.003 1.94566e-17)
(1.95647 4.10248 3.13286e-17)
(-2.3955 5.71537 2.35347e-17)
(-0.832508 -1.6486 8.12686e-18)
(0.577675 -0.962744 1.64453e-17)
(1.7546 0.0759662 1.06213e-17)
(-6.12719 -1.23544 3.29531e-18)
(2.28157 1.73289 1.98503e-17)
(4.18919 -3.16708 1.48296e-17)
(0.360756 -0.373197 4.15513e-18)
(2.37397 1.10156 1.97097e-17)
(0.737293 0.252705 8.22734e-18)
(9.11315 4.21949 1.32393e-17)
(-3.64673 -3.30542 5.17212e-18)
(1.69206 -7.24093 -1.9394e-18)
(-4.52107 4.66563 3.17006e-17)
(1.21453 4.67583 2.92644e-17)
(1.34899 -0.139621 1.21075e-17)
(5.4754 2.48501 3.14248e-17)
(-3.59 -3.69638 3.45026e-18)
(-5.01702 -0.607437 1.30241e-17)
(-1.87855 -2.19884 7.36027e-18)
(-0.138746 -1.45924 6.61533e-18)
(-1.03551 -0.243636 8.77568e-18)
(1.22597 1.33984 1.18618e-17)
(-4.1453 -2.35536 8.68387e-18)
(0.961181 -0.542038 8.56939e-18)
(-0.568672 -1.01792 4.29029e-18)
(-3.19407 -5.26999 7.14206e-19)
(1.42594 -6.84224 -7.21836e-19)
(2.25141 -7.50709 -1.54387e-18)
(0.709049 4.88894 3.00146e-17)
(5.49731 7.29641 7.53854e-17)
(-0.323654 5.19436 2.98393e-17)
(-1.07354 4.95929 2.43561e-17)
(-0.428524 -1.3721 2.96449e-18)
(3.80317 4.59408 4.26689e-17)
(4.74445 8.62118 1.18638e-17)
(-5.52265 3.20907 3.1288e-17)
(1.07451 0.463177 5.37711e-18)
(-4.84739 -1.93381 1.04186e-17)
(2.27543 -8.06525 -9.26852e-19)
(-2.65459 -5.6368 -4.61588e-19)
(5.50101 8.63127 6.74967e-17)
(4.14669 5.59572 5.13586e-17)
(0.511723 -6.51745 6.23921e-18)
(-0.139258 -0.582178 -3.51273e-18)
(0.834146 -0.5885 7.73978e-18)
(3.40288 10.5886 3.47459e-17)
(0.877641 0.413273 9.86767e-18)
(1.42585 5.1976 2.22428e-17)
(-0.14381 -0.479661 1.21226e-17)
(-0.774734 -0.437458 5.85777e-18)
(-0.915081 -0.584697 8.49574e-18)
(-1.98097 4.80319 1.47435e-17)
(4.5619 10.4068 2.13218e-17)
(-0.887989 -2.07559 4.62749e-18)
(-0.176632 -0.437798 7.51371e-18)
(0.0696141 -1.25378 8.17571e-18)
(-0.8926 -1.07762 5.07126e-18)
(7.60134 3.39071 7.37313e-17)
(0.303804 -0.518105 1.87404e-19)
(0.815586 -6.80599 1.12401e-18)
(-1.21534 -7.19828 -1.99712e-18)
(1.91362 0.838299 1.03975e-17)
(1.2373 -5.15025 1.04533e-17)
(5.49922 0.666827 2.87865e-17)
(-3.2014 4.99294 1.86749e-17)
(2.46022 -2.76948 1.13571e-17)
(1.73173 0.538497 8.2894e-18)
(1.67273 3.61261 2.25669e-17)
(-5.88909 1.21871 1.88563e-17)
(0.785961 0.512598 3.11539e-18)
(1.2328 -0.0643663 1.32829e-17)
(-0.141072 -0.551624 5.2835e-18)
(-0.45466 -0.423839 3.57942e-19)
(0.442366 -0.496436 2.82714e-18)
(1.68446 0.920954 -3.32925e-17)
(2.69885 -4.05414 1.88501e-17)
(0.0170996 -1.09323 6.26078e-18)
(1.03035 0.593768 7.03569e-18)
(-0.875125 0.573655 1.4756e-17)
(1.30337 3.8888 2.02732e-17)
(-1.97896 -2.20263 1.38234e-17)
(0.264895 -0.914933 3.15433e-18)
(2.3937 -7.86816 -3.31802e-18)
(7.66705 2.89045 2.41617e-17)
(0.964687 -5.57241 1.13549e-17)
(-0.833081 -0.839074 7.87364e-18)
(-0.0348507 -7.77542 -1.94999e-18)
(1.92735 1.60645 1.33102e-17)
(0.876585 -0.303407 1.07748e-17)
(0.53745 4.23975 1.77434e-17)
(0.23905 -6.90264 -1.45555e-18)
(-0.813759 4.12863 1.47331e-17)
(-0.573541 -0.331237 5.34183e-18)
(-1.13137 -0.0913705 9.13171e-18)
(-3.89943 -5.46055 1.69424e-18)
(0.864387 -0.697348 7.39912e-18)
(-0.535168 -0.738307 3.93576e-18)
(-4.94788 3.69004 2.06603e-17)
(4.13381 7.90478 1.59365e-17)
(0.128616 4.18252 1.28812e-17)
(0.724809 -0.456551 4.02022e-18)
(0.268792 -0.461782 1.74903e-19)
(-4.06879 -4.06431 4.09707e-18)
(0.450257 -0.0481322 7.69355e-18)
(1.24832 -8.88372 -1.10337e-18)
(7.89404 3.11737 5.10504e-17)
(0.7287 -0.52233 4.80823e-18)
(0.934181 0.680458 7.06654e-18)
(-0.249596 0.118603 2.3447e-17)
(0.630595 -0.447728 2.16337e-18)
(0.399183 -0.444444 1.66287e-18)
(-4.03601 -6.12787 4.87687e-19)
(-1.10282 3.85822 9.33521e-18)
(3.25659 -3.90034 1.75019e-17)
(-2.28671 4.52033 8.79984e-18)
(0.564131 0.0657378 1.09194e-17)
(0.68766 -0.0779492 8.50795e-18)
(-4.57775 -3.28911 6.22062e-18)
(2.91908 10.3587 3.56631e-17)
(4.15569 -1.18787 3.27877e-17)
(-0.122431 -0.00698924 1.4419e-17)
(0.364807 5.09957 1.45942e-17)
(3.94598 5.20907 4.79032e-17)
(2.06873 -7.58342 -6.96636e-18)
(0.573941 -1.01995 5.74933e-18)
(0.478632 0.0264313 8.0572e-18)
(0.412976 -0.818231 3.9277e-18)
(-6.01854 -0.678442 1.69377e-17)
(-0.664111 -0.233411 5.93615e-18)
(3.8437 -4.02029 9.19345e-18)
(-0.877593 -0.823018 4.61361e-18)
(-3.67206 4.41681 1.78295e-17)
(5.22412 8.17871 6.74367e-17)
(-0.649906 -0.959915 6.14614e-18)
(1.01162 -0.3817 5.55369e-18)
(8.04069 3.04691 3.39517e-17)
(-3.49051 -7.08544 -1.19949e-18)
(1.44426 -8.70862 -2.35254e-18)
(7.51689 2.98066 2.79163e-17)
(0.0916884 -0.669313 6.45305e-18)
(3.25516 9.68445 1.85927e-17)
(0.469306 -6.41814 1.63477e-17)
(-0.077721 -0.449994 1.84411e-18)
(-4.68094 3.53686 1.62795e-17)
(3.70269 6.08951 5.24183e-17)
(-0.153572 -0.268071 7.62269e-18)
(-5.72323 2.29829 2.38954e-17)
(1.57473 0.363939 7.18053e-18)
(2.81427 -4.89719 7.69178e-18)
(0.735996 -0.0714998 1.30159e-17)
(0.433439 0.485313 6.10616e-18)
(1.01986 -0.108653 5.89499e-18)
(1.37918 0.0280767 7.86462e-18)
(0.579989 0.50537 -2.67018e-17)
(1.63113 0.947836 5.66466e-18)
(-2.91581 -7.62913 -1.79373e-18)
(1.38285 2.65862 1.91071e-17)
(1.14774 3.41346 1.26906e-17)
(-0.892791 -0.349822 9.26022e-18)
(0.844743 -0.25339 9.40569e-18)
(1.30931 0.788725 8.75534e-18)
(-5.9803 -1.94646 1.22374e-17)
(-0.133888 -0.480615 6.02814e-18)
(-5.92592 -1.57999 1.08301e-18)
(1.68443 1.37046 7.22278e-18)
(-1.59072 -2.44453 8.66045e-18)
(0.96893 0.820252 7.32211e-18)
(0.854206 3.49812 1.07459e-17)
(8.8296 4.77555 1.20468e-16)
(4.78744 9.09505 5.92189e-17)
(-0.525015 -0.403215 -1.75926e-18)
(0.214881 3.55123 9.07951e-18)
(0.334834 0.42435 1.03767e-17)
(1.81885 -7.32174 -9.48628e-18)
(0.745383 -0.470861 8.73881e-18)
(0.463676 -0.387137 8.0646e-18)
(0.852327 -1.02087 6.58675e-18)
(0.459157 -0.267338 1.63352e-18)
(0.103472 -6.82246 5.31222e-18)
(-0.688765 -9.02732 -1.76926e-18)
(-0.106341 3.38268 9.39191e-18)
(2.95274 -3.20364 3.02186e-17)
(0.335057 -0.685119 6.71539e-18)
(-5.45317 2.69266 1.63567e-17)
(0.78802 0.982913 8.3852e-18)
(-0.729577 -0.0541988 1.15347e-17)
(-0.81304 -0.337349 7.0017e-18)
(1.52324 -8.36961 -7.38863e-18)
(0.421634 -0.406757 4.50888e-18)
(3.98278 -3.67854 8.31301e-18)
(-6.27598 -1.54451 1.30448e-17)
(0.0365303 -9.28724 -3.18379e-18)
(2.92983 8.14159 1.99841e-17)
(-5.97015 0.337908 1.75171e-17)
(0.503283 -0.185016 2.63338e-18)
(-0.583323 -0.0304144 4.87178e-18)
(-3.82022 -6.42303 1.8726e-18)
(-4.05202 -5.42066 3.03329e-18)
(-3.14973 3.51994 9.34955e-18)
(-1.79782 3.71203 4.83988e-18)
(0.33464 -0.221634 7.30826e-18)
(2.63193 9.99713 2.1848e-17)
(-0.808752 3.183 7.26066e-18)
(0.122343 -0.055111 -1.05391e-18)
(-4.09108 -7.21779 1.73654e-19)
(0.419698 -0.274802 1.3602e-18)
(7.85139 2.51134 4.47822e-17)
(1.61281 10.2406 3.00976e-17)
(6.75078 1.70497 3.44353e-17)
(1.28346 -0.15446 6.63352e-18)
(0.663068 1.0054 9.29848e-18)
(-5.71942 -3.4302 6.26674e-18)
(-0.466784 0.0412988 6.58501e-18)
(0.931559 -7.00652 -8.8749e-18)
(-0.981156 -0.217956 8.20449e-18)
(0.070423 -0.126353 7.33401e-18)
(0.681969 -9.08563 -9.49792e-18)
(0.640195 0.0212989 1.25573e-17)
(1.38486 0.257832 6.80894e-18)
(-1.23072 -0.295401 8.43409e-18)
(0.759781 -0.252588 2.51608e-18)
(1.43279 0.600502 5.8033e-18)
(1.23786 2.35077 1.31988e-17)
(1.05452 -0.397461 7.72094e-18)
(-4.27344 -7.65659 -8.48146e-19)
(0.25027 1.09648 6.05725e-18)
(0.853159 1.33618 7.54652e-18)
(0.552744 -0.087875 2.46963e-18)
(1.1445 2.64202 9.45071e-18)
(0.0606169 -0.0700437 -1.19837e-18)
(0.738489 -0.503871 8.96471e-18)
(3.50325 5.65163 4.96051e-17)
(0.861119 2.99465 7.86945e-18)
(0.242712 0.55943 1.12334e-17)
(-6.07748 -2.72408 8.14186e-18)
(-0.00931079 -0.0323776 2.05925e-17)
(0.560371 -7.13232 -2.19259e-18)
(-4.40411 2.74846 7.894e-18)
(1.62267 -8.09151 -1.26254e-17)
(-0.296833 -0.182947 2.55746e-18)
(-5.82003 1.07588 1.70996e-17)
(0.0998063 -0.274594 4.74661e-18)
(-0.086809 -0.248449 9.51515e-18)
(1.26121 -0.219983 5.98703e-18)
(-0.223044 -0.782989 8.83184e-18)
(-3.18241 -8.23038 -2.02436e-18)
(0.569423 2.93611 7.55638e-18)
(0.381986 -0.20411 8.34437e-18)
(4.20681 0.72302 4.35682e-17)
(-0.262485 -0.234728 7.33417e-18)
(-2.10721 3.24533 1.13242e-18)
(0.528306 -0.507944 8.5042e-18)
(-1.00421 3.02284 7.97237e-18)
(1.29949 1.17271 9.24548e-18)
(-3.44789 3.08239 7.4353e-18)
(0.451486 0.25687 1.15545e-17)
(0.622892 0.136719 4.27948e-18)
(-0.0439362 2.7766 8.50325e-18)
(0.753432 -8.77194 -1.03646e-17)
(-0.232737 0.0325594 1.1196e-18)
(6.56673 2.08156 3.52554e-17)
(-0.565947 -1.23894 2.2038e-17)
(-0.593773 0.798713 8.12101e-18)
(-0.730882 0.124952 2.93695e-18)
(0.539837 1.28311 7.80076e-18)
(-2.34464 -8.80682 -2.47515e-18)
(0.502615 -0.116689 8.25052e-18)
(1.43438 0.576415 6.52681e-18)
(2.0583 7.22132 1.55989e-17)
(5.30011 1.16938 2.33522e-17)
(6.97979 2.36112 3.93008e-17)
(4.47968 8.603 5.97374e-17)
(1.12851 -5.71969 7.30585e-18)
(1.36994 0.060023 5.15966e-18)
(0.0727201 -0.00682954 2.40933e-20)
(-3.81874 2.63949 2.72143e-18)
(0.784316 -6.10792 1.75246e-17)
(-0.384787 2.64764 8.31936e-18)
(-5.04156 -1.73326 -1.77759e-18)
(-0.483883 -9.43683 -9.82578e-18)
(0.479711 -0.132031 7.9185e-18)
(-0.383314 0.241466 5.82026e-18)
(1.07097 -0.320199 8.3314e-18)
(-0.680981 0.239661 8.8497e-18)
(0.644511 -0.138264 2.68744e-18)
(1.23278 0.0698287 7.38075e-18)
(-4.93503 1.87358 4.31753e-18)
(1.18178 -0.0787339 7.4597e-18)
(1.44035 0.61118 -1.88073e-17)
(1.20134 2.22788 7.24108e-18)
(-1.07168 -0.449423 8.5326e-18)
(-3.51794 -7.32103 2.81525e-18)
(-0.143029 1.19712 7.09642e-18)
(0.97414 -0.370648 8.85871e-18)
(0.517257 -0.09122 4.32735e-18)
(1.28433 1.74144 1.00072e-17)
(0.57363 0.0180518 9.27197e-18)
(1.32786 -7.71834 -1.42508e-17)
(1.14473 9.28907 1.59678e-17)
(-0.648011 0.0757486 1.79966e-17)
(1.92979 2.48446 3.42033e-17)
(0.758726 -6.44539 1.65345e-17)
(-5.82111 -0.679264 1.03232e-17)
(1.19687 0.422992 7.79866e-18)
(-5.38859 -4.36681 5.11512e-18)
(6.69904 2.99691 4.45867e-17)
(0.118287 -0.017195 6.6426e-18)
(0.100088 1.15195 1.35237e-17)
(-4.73045 -5.60294 3.98272e-18)
(1.05079 2.33154 6.21547e-18)
(-0.0320963 -0.221314 8.14113e-18)
(-0.169795 -9.25862 -1.2403e-17)
(-3.70302 -7.81459 1.37392e-18)
(0.518371 -0.396083 -3.33331e-19)
(1.16469 0.686461 9.46026e-18)
(0.54492 1.39312 1.22503e-17)
(0.258861 -0.343067 3.95929e-18)
(-0.0540338 -0.944941 6.18212e-18)
(0.625757 -0.364656 8.85582e-18)
(2.19316 -4.75205 2.25485e-17)
(0.900114 -8.36377 -1.83388e-17)
(-6.26953 -2.01521 2.73547e-18)
(4.2946 -0.765427 4.34902e-17)
(-4.48349 2.07047 1.28669e-19)
(0.538754 2.42674 5.88716e-18)
(-0.524418 0.645116 9.20085e-18)
(-0.66703 -5.68922 1.33533e-17)
(-4.07595 -7.65524 -1.16038e-18)
(3.42912 1.64738 2.61492e-17)
(-0.0923431 -0.0438741 -6.22475e-19)
(0.680599 1.61712 1.03179e-17)
(-0.587387 0.480511 1.54296e-18)
(-3.17818 2.67243 3.19099e-18)
(0.742542 0.0666042 2.10717e-18)
(0.569613 -0.418437 8.4776e-18)
(1.23267 -0.87101 8.05741e-18)
(0.225804 0.817284 1.07178e-17)
(3.53284 9.12382 5.18594e-17)
(-6.08096 -3.04979 3.96252e-18)
(0.815665 -0.0252198 1.54856e-18)
(-0.943613 2.49776 9.34067e-18)
(-4.01079 -7.96283 -1.81161e-18)
(-0.232334 0.0717338 8.66478e-18)
(-1.85233 2.57043 2.75774e-18)
(0.197531 2.35944 5.56197e-18)
(-0.638097 0.423949 7.34104e-20)
(-5.15237 0.294336 1.25933e-18)
(0.219112 -8.72299 -1.73444e-17)
(0.216517 1.56476 9.29767e-18)
(1.08791 -0.0813593 7.53346e-18)
(0.626759 -0.178556 9.25639e-18)
(0.988818 -0.186914 8.19167e-18)
(1.12776 -7.5457 -1.09203e-17)
(-2.61746 2.08939 -3.56879e-19)
(-2.12748 -8.78949 -2.54665e-18)
(0.0197524 0.194726 -4.52378e-19)
(5.43988 0.597247 2.98622e-17)
(0.0832438 -0.0432838 -1.03659e-18)
(1.10164 0.0823563 7.86993e-18)
(0.905943 -0.271061 8.81511e-18)
(0.0947502 0.051704 -8.43128e-19)
(0.0269407 1.27305 9.701e-18)
(1.13916 0.198477 8.08357e-18)
(0.594845 -0.0476079 7.31724e-18)
(-3.72788 2.16185 -8.03614e-19)
(0.284089 1.358 1.34467e-17)
(0.806146 7.48844 1.14205e-17)
(-0.374432 2.16271 5.92069e-18)
(0.650802 -0.046075 4.35968e-18)
(0.938283 -8.26393 -1.17262e-17)
(-4.92167 1.04 -7.95855e-20)
(1.43412 1.31248 7.42992e-18)
(-0.123103 1.1045 8.1948e-18)
(-0.270421 1.30781 6.16579e-18)
(0.657697 0.769414 4.79293e-18)
(0.70067 -7.6974 4.45324e-18)
(-2.09293 2.33063 4.53261e-19)
(-5.82578 -2.45702 4.08246e-18)
(1.3935 1.58312 6.17209e-18)
(0.543682 -6.44707 9.34575e-18)
(0.484401 0.250471 9.5999e-18)
(1.04252 1.84785 4.70842e-18)
(0.892459 0.255222 2.41298e-18)
(0.831794 -0.323445 9.04041e-18)
(-0.0271295 0.35726 7.22084e-19)
(0.133302 0.105684 4.92857e-18)
(-1.51061 -9.02764 -9.17247e-18)
(0.62383 1.599 1.26377e-17)
(0.176678 0.195072 9.25334e-18)
(0.574317 9.45955 1.9913e-17)
(-0.127294 0.875109 1.10587e-17)
(0.808172 -6.54077 1.25076e-17)
(0.309253 -8.73809 -1.7795e-17)
(0.255367 0.145204 8.26938e-18)
(0.0567668 -0.116002 2.64446e-18)
(1.24136 0.501757 8.80227e-18)
(2.33236 -3.51905 2.77993e-17)
(0.548868 1.68122 1.0613e-17)
(-3.59909 2.26611 -6.42536e-20)
(0.898725 -7.36541 1.59147e-17)
(1.39393 0.442421 4.78668e-18)
(0.710089 -0.401157 9.77724e-18)
(0.753309 1.84805 4.95951e-18)
(4.64497 1.019 4.01363e-17)
(-0.738516 2.04018 5.06597e-18)
(-1.32511 2.29213 9.08793e-18)
(0.340503 0.407792 1.03249e-17)
(-0.538167 -8.6793 -1.47622e-17)
(0.0247244 0.14427 1.95223e-17)
(-4.61523 -2.07247 3.49819e-18)
(-3.96193 -6.39879 5.36787e-18)
(-3.51802 -7.19373 4.57818e-18)
(-3.15895 -7.46276 1.67847e-18)
(-4.21985 1.44661 -6.0115e-18)
(0.317711 0.544834 1.00012e-17)
(-5.08747 -1.01142 -1.05081e-18)
(-0.471659 0.496537 -3.60191e-18)
(0.553414 -6.5808 1.43683e-17)
(0.0738179 1.46942 9.07896e-18)
(0.956876 0.065023 5.79115e-19)
(0.884687 -0.134834 7.62938e-18)
(0.715003 -0.256069 1.21093e-17)
(-5.41968 -4.20969 5.36775e-18)
(0.958913 -0.0708465 2.23435e-18)
(1.04822 0.0409933 6.46604e-18)
(-5.38498 -3.42879 5.60369e-18)
(0.999011 -0.0297287 6.66097e-18)
(1.34841 -6.021 1.79333e-17)
(-3.51383 -7.46191 -2.37846e-19)
(0.212313 -0.244709 3.94436e-18)
(0.928574 0.56893 3.75377e-18)
(0.24047 1.90836 3.96181e-18)
(0.952312 -0.110918 3.48357e-18)
(0.838388 -0.187581 7.99292e-18)
(-0.03738 1.12285 1.02808e-17)
(0.584012 -8.3315 4.15421e-18)
(-1.00615 -6.75826 4.62496e-18)
(-4.86796 -0.59541 -2.37012e-18)
(0.723022 0.170274 7.91221e-18)
(0.0768536 -0.021926 6.4703e-19)
(-3.25162 -7.65954 -2.43224e-18)
(-0.203799 0.25166 -1.97925e-19)
(-0.370957 -8.7725 -1.41095e-17)
(3.00797 8.76817 5.08487e-17)
(0.0934496 6.4519 9.86135e-18)