/*--------------------------------*- C++ -*----------------------------------*\
  =========                 |
  \\      /  F ield         | OpenFOAM: The Open Source CFD Toolbox
   \\    /   O peration     | Website:  https://openfoam.org
    \\  /    A nd           | Version:  8
     \\/     M anipulation  |
\*---------------------------------------------------------------------------*/
FoamFile
{
    version     2.0;
    format      ascii;
    class       surfaceScalarField;
    location    "0.6";
    object      alphaPhi0.water;
}
// * * * * * * * * * * * * * * * * * * * * * * * * * * * * * * * * * * * * * //

dimensions      [0 3 -1 0 0 0 0];

internalField   nonuniform List<scalar> 
2805
(
-2.81604e-08
7.21806e-06
7.90222e-06
-2.77727e-08
-2.14141e-10
-5.31598e-13
0
1.90874e-11
-3.11154e-13
-2.68877e-13
-8.90036e-08
3.65984e-08
-1.99369e-12
1.50695e-12
-5.73512e-13
-1.68072e-13
-1.05435e-12
1.76145e-12
-7.40334e-14
-4.08244e-14
-1.42056e-13
1.3961e-13
-4.15779e-13
1.43662e-13
-5.51424e-13
-8.43982e-14
3.96149e-05
-8.54711e-05
6.41332e-05
-7.32696e-11
7.15457e-11
-1.81666e-08
2.07223e-08
-9.81276e-10
-3.56768e-09
-1.18782e-08
4.782e-05
-1.32905e-05
-1.08587e-10
-5.30799e-11
2.89178e-05
-1.73634e-05
-2.23036e-08
2.13751e-08
4.75555e-05
0.000263577
-0.000311133
2.41886e-08
3.87537e-07
-8.10278e-08
-8.94605e-06
3.22686e-06
5.70864e-06
-2.74671e-08
-1.56152e-08
-2.6802e-09
2.50166e-08
-1.16962e-08
4.55413e-09
4.36216e-09
-1.40865e-08
-1.83228e-10
1.10567e-09
0
4.7057e-10
-5.47733e-07
3.80088e-07
-6.1488e-08
-2.64111e-09
5.21957e-16
2.64257e-09
-5.52301e-06
-3.42955e-06
-9.599e-09
5.01981e-09
-4.79823e-09
2.11692e-08
-1.66775e-06
2.78561e-07
4.71243e-05
-8.11913e-14
1.10575e-09
-1.08483e-05
1.40622e-05
-1.24861e-08
0
-6.49215e-07
1.25404e-07
0
5.61111e-10
-5.25512e-06
8.41505e-09
-8.22437e-09
9.90867e-05
-0.000156766
2.05326e-08
0.000702182
-0.000172216
6.79744e-08
-6.79743e-08
-6.87946e-14
-1.53872e-08
1.67783e-08
-2.06942e-09
-5.01385e-07
-4.6097e-10
3.97087e-05
-1.64518e-12
1.6912e-12
-3.86121e-14
0.000269526
-0.000577704
0.000308178
-0.000330561
-4.61027e-05
0.000376664
-7.65186e-05
-0.00135999
0.00143686
-2.01866e-05
-1.34742e-07
6.57962e-07
0.000664599
-9.97299e-05
-1.08655e-08
7.39122e-09
2.85135e-09
-2.24624e-13
2.96587e-05
6.7964e-08
0
-7.07889e-07
1.09803e-07
2.09584e-06
-3.72667e-07
0.000484689
0.000588899
-4.84536e-08
1.87342e-08
0.00099562
-0.000511355
5.19084e-10
-2.43571e-08
9.18546e-09
-8.81163e-09
0.00138388
-3.86077e-15
1.69647e-12
2.7788e-08
2.82908e-09
-4.60619e-07
-1.20724e-06
-9.65297e-06
1.39349e-07
-0.000237685
-0.00112261
0.000166174
-1.45482e-06
-0.000141624
-2.92709e-08
-1.83245e-08
3.0094e-10
-5.2854e-18
1.05676e-12
3.9316e-18
-1.00893e-17
1.36209e-05
-9.40725e-06
3.59502e-06
2.02806e-14
-2.44039e-14
-1.73674e-16
4.47857e-16
-1.41185e-14
-1.53657e-14
0.000757972
6.86778e-15
-1.96244e-14
2.46604e-15
-7.94876e-11
-5.71197e-09
-3.23734e-12
5.84163e-13
2.60801e-12
0.000100114
-2.74588e-05
6.33876e-06
2.17565e-05
-2.68289e-05
-1.57665e-12
5.74618e-09
1.75828e-08
-6.10357e-05
3.53052e-05
-3.46065e-05
4.96234e-10
5.20321e-09
-1.04211e-06
1.05132e-06
5.36434e-09
3.97112e-08
-3.49589e-08
-3.12967e-09
1.38592e-05
1.71335e-05
0
-5.31719e-09
-6.31157e-15
1.2463e-13
6.91919e-15
-1.71278e-15
-3.97013e-08
1.65115e-06
1.68283e-06
1.52814e-05
-2.41593e-11
9.63782e-10
-1.77396e-15
2.02496e-05
-4.55681e-08
6.36363e-09
-6.25693e-07
-1.28235e-08
2.79551e-07
1.58497e-08
-1.54329e-16
1.24481e-15
1.51017e-15
-9.67129e-10
-1.03155e-07
6.33497e-08
2.64548e-07
5.65125e-08
-1.46734e-05
8.33507e-06
-3.02804e-08
-2.46148e-14
2.3888e-14
2.8038e-07
-7.06998e-07
-7.14785e-07
1.94845e-10
-3.22115e-09
0
-1.52537e-15
-8.61919e-15
8.55357e-05
-0.000155791
-2.89136e-13
6.4168e-08
-7.42797e-08
6.08762e-05
1.66033e-05
-0.000115992
-2.58615e-14
9.00375e-05
-9.69472e-05
-0.000883784
0.000866057
1.77267e-05
-0.000357235
-4.80995e-05
2.40013e-08
-5.17858e-09
1.4842e-09
3.70749e-08
-3.92905e-08
-5.08582e-07
-1.92449e-08
7.4307e-16
-6.72437e-16
1.73105e-08
-0.000266875
0.000694913
-0.000428039
-4.48915e-15
-1.3833e-14
1.73706e-12
-1.53166e-06
-1.08148e-06
9.65946e-07
0
8.08972e-07
3.44655e-08
-3.64542e-08
5.96399e-07
-1.04546e-07
-5.30202e-07
-5.73881e-06
1.74629e-09
1.35634e-13
5.93265e-09
-8.23374e-05
8.29793e-05
1.43818e-05
-3.89164e-06
-1.89978e-12
6.29771e-12
-0.00044638
0.000179505
2.37136e-07
-4.49986e-07
7.05148e-07
-1.52728e-05
5.19942e-05
-4.05386e-05
-2.20972e-10
2.18611e-10
-0.000883784
-7.35175e-06
1.10739e-05
-1.91101e-11
2.59283e-11
-2.01864e-13
6.7318e-10
3.56558e-08
0.00079013
7.59269e-05
-1.03686e-07
-1.53177e-14
2.24005e-14
-2.60778e-12
8.09093e-07
1.22382e-09
-1.22027e-09
0
2.81996e-07
-7.80448e-12
-0.000879467
-4.31702e-06
-3.01956e-08
2.02117e-06
-8.91256e-08
-5.57191e-09
4.25725e-07
-5.65122e-08
0.000270702
0.000519428
-3.04416e-15
-1.69049e-14
-3.79311e-08
9.18825e-09
1.13717e-08
-2.33018e-12
2.48733e-12
-5.30762e-18
-1.49859e-16
8.82197e-07
-9.09903e-14
1.36614e-06
-7.26171e-07
2.05985e-07
-1.17236e-08
-6.07319e-05
-6.0895e-05
1.07794e-05
3.2746e-06
-5.06436e-11
1.76548e-10
4.35235e-07
1.56693e-08
-1.4269e-08
-8.98934e-06
2.61081e-08
-2.3647e-15
-7.80758e-21
3.25338e-15
-6.74634e-09
6.71792e-07
-0.000189756
-0.000387948
-4.02729e-10
8.30761e-11
1.1927e-05
-1.87038e-08
5.63349e-10
5.12657e-12
-5.40736e-10
-1.05721e-14
-1.05762e-12
6.16744e-13
2.01486e-07
5.45052e-09
-2.21303e-13
-1.62563e-15
-1.9045e-15
-3.87774e-13
3.6252e-08
-1.7027e-08
-0.000879467
4.8788e-13
1.70756e-11
-4.62817e-11
-9.69463e-08
6.17206e-07
1.94603e-07
-1.15809e-06
6.25323e-07
3.82822e-06
-2.57652e-08
3.71452e-08
-4.24307e-08
7.66987e-13
-1.11777e-12
5.23761e-07
-1.16197e-12
7.56094e-13
1.81288e-05
2.76955e-07
4.29614e-06
-3.61489e-07
-0.00089303
1.35631e-05
5.48683e-09
-1.18908e-05
-2.40164e-06
1.43592e-05
-1.05176e-12
3.99571e-09
2.43959e-11
3.43901e-15
-5.43564e-07
6.46298e-06
-8.28035e-08
-4.26744e-13
-3.70312e-16
-5.05026e-18
7.62014e-07
1.24076e-14
-1.67154e-08
-1.45374e-05
2.7405e-06
-1.16185e-12
-9.84297e-12
9.42989e-10
-7.75202e-15
1.22362e-14
-4.29332e-20
-8.41853e-18
7.42873e-18
0
-9.39836e-13
1.25084e-06
-1.69158e-06
4.86351e-06
-6.73272e-06
-2.48695e-08
1.02146e-08
1.77379e-07
3.77438e-07
1.48013e-12
-5.85639e-12
3.30182e-06
1.40039e-05
-1.6372e-05
-8.6922e-12
2.17336e-12
1.70262e-08
-8.83433e-09
-0.00089303
2.68054e-06
-1.15834e-05
2.23935e-08
4.11672e-07
-2.344e-06
1.63807e-05
1.14244e-05
-1.35291e-07
-3.58105e-05
-1.62369e-07
1.80414e-05
4.74412e-11
-4.9916e-11
1.46817e-13
-5.64754e-16
-6.30385e-18
-1.04144e-05
-0.000613755
-0.000279275
-3.68724e-13
1.99608e-10
-1.99789e-08
-4.68294e-16
-5.82975e-15
-1.99741e-08
1.93663e-07
-9.91255e-08
1.01535e-07
-2.24498e-08
1.49482e-09
2.10716e-08
-3.36991e-08
0
3.8958e-08
-6.46458e-13
2.81698e-06
-2.18511e-06
3.82993e-15
-2.12691e-09
5.80631e-09
-3.82445e-19
-1.13241e-17
7.92763e-05
-0.000236042
3.10989e-17
-1.97381e-18
0
-4.17591e-05
4.97812e-07
5.43268e-07
-3.04199e-08
8.52133e-09
9.94201e-11
8.89589e-10
-6.88104e-10
-1.77396e-08
0
-6.08412e-15
-2.30949e-14
-4.58163e-11
-3.25798e-13
7.29005e-12
3.84974e-09
3.93208e-07
3.89089e-05
-0.000613755
1.95106e-10
7.7312e-13
-1.013e-12
-2.4262e-05
-3.799e-05
-1.57977e-15
-2.07486e-15
-0.000694913
8.11587e-05
-1.90456e-10
6.57885e-11
-2.2805e-11
4.19752e-13
-9.69956e-13
-3.07228e-17
3.05145e-10
3.38773e-11
-2.84736e-11
-1.50607e-05
9.48776e-07
0.000220873
3.85214e-07
1.78462e-06
-2.03112e-08
4.52774e-10
2.39509e-06
5.29554e-06
-8.72996e-19
-3.0179e-08
-1.76171e-10
1.45524e-05
-1.68628e-05
-1.53544e-07
-4.38829e-07
1.6657e-08
-1.80087e-08
6.42284e-11
2.96615e-09
-2.40884e-09
0.000178541
-9.96468e-05
-1.95077e-07
8.71192e-07
1.85355e-09
-4.46446e-14
2.20589e-05
0.000168225
4.89787e-05
-9.83493e-14
1.01047e-12
3.664e-07
-4.81191e-07
-6.05041e-07
-1.01818e-15
0.000244283
-1.08228e-09
0
-4.15432e-13
9.17957e-11
-3.25128e-17
1.17019e-06
-8.04907e-07
4.78972e-13
-4.7922e-08
1.03987e-07
1.05845e-10
-1.92483e-10
4.46528e-18
-1.28122e-16
1.10406e-16
2.8958e-11
1.56097e-09
-4.34541e-14
-9.51459e-14
9.73471e-14
1.03889e-06
-2.51497e-06
-3.87655e-06
2.07131e-07
2.05085e-07
-3.30378e-08
1.35629e-18
-3.86852e-18
-4.27205e-12
3.69743e-10
0
4.95987e-13
-8.11986e-13
3.19812e-12
-3.14667e-12
-5.07834e-13
-9.77158e-18
-3.94189e-10
1.92906e-06
-3.53424e-07
1.50805e-05
-5.17319e-07
-1.91638e-10
-2.03831e-08
-6.61083e-08
1.89972e-08
-1.97125e-09
-3.27199e-09
0.00118326
-9.39017e-06
1.09491e-09
-1.83468e-09
-4.14213e-06
9.06683e-06
1.7141e-05
-1.61372e-05
3.02271e-05
1.80581e-18
-6.63025e-18
-0.000285755
0.000550066
-0.000264311
-2.39923e-06
0
0
6.68307e-08
4.58379e-08
-3.35421e-10
2.75198e-09
-1.34346e-10
-3.00664e-08
-4.53755e-10
3.11118e-07
-4.43901e-06
-2.09983e-06
1.02025e-08
2.3123e-13
1.54216e-06
9.01668e-07
4.83363e-07
-3.82587e-12
6.51895e-12
-4.21888e-13
2.12965e-10
-1.95747e-07
-7.52736e-11
5.23669e-10
-9.672e-06
1.24405e-05
6.38863e-06
-8.48369e-06
6.42395e-05
-0.000129185
-3.07648e-08
-2.12144e-08
2.99681e-06
-1.76634e-08
8.78017e-09
-1.08119e-08
-1.0042e-07
-8.57863e-20
-4.02833e-10
9.17484e-11
3.38322e-07
-3.54104e-12
2.15779e-10
-9.22272e-17
-1.39489e-05
4.73312e-06
-5.97512e-13
4.89301e-07
-2.08017e-07
1.86886e-09
-3.11716e-08
-4.90874e-07
3.08211e-12
-3.4503e-12
3.43532e-08
0
2.88378e-06
-8.77249e-14
-6.53121e-15
0
-0.000238621
-0.000207759
2.25825e-19
-6.74826e-19
2.52838e-06
1.73243e-05
4.71224e-09
0.000270702
-1.76362e-05
-8.50161e-07
1.71154e-14
-4.60894e-14
2.02674e-14
-3.45058e-08
1.34298e-08
-2.28602e-10
8.63645e-09
1.70966e-07
3.80011e-07
-7.32425e-06
-4.30327e-06
1.51026e-12
8.17815e-11
-1.05401e-10
-1.8188e-06
2.91737e-06
1.36085e-15
-1.91474e-14
2.43026e-08
-2.52199e-08
1.99275e-05
-1.52425e-05
-3.39536e-06
4.68204e-14
2.33682e-07
2.09539e-06
-1.62976e-07
-1.38653e-14
3.35531e-05
2.20684e-08
-1.26425e-09
1.96595e-07
-1.08983e-05
-4.27472e-16
-2.55436e-16
-9.92752e-14
6.05953e-11
4.09818e-07
-8.07131e-07
1.74325e-05
-1.05188e-05
-1.93336e-05
-9.18798e-16
2.96791e-06
0.000154367
-0.00011098
-4.15758e-05
0
1.2473e-05
0
0.000515371
-0.000254536
-0.000261193
-3.30245e-12
1.50733e-08
2.38728e-07
2.30213e-06
-1.43244e-05
-8.39803e-13
1.06288e-05
-8.7362e-06
0
-8.97707e-09
3.03242e-09
-2.3261e-09
-9.64212e-19
-1.12333e-11
-1.16581e-05
-1.5362e-06
-2.94378e-10
2.5375e-07
3.17655e-13
-8.61928e-11
8.49193e-11
0
1.58664e-12
1.41676e-14
-3.53959e-12
-3.49378e-08
-2.37149e-09
0.000112616
4.36357e-05
-6.27146e-06
2.12638e-06
5.02112e-18
-1.0446e-16
2.95414e-06
-9.31584e-09
-0.000140679
0.000392799
1.87743e-05
1.156e-05
-1.14578e-05
-4.6275e-09
-1.79423e-09
4.50549e-10
-9.68468e-13
1.907e-11
3.94619e-11
0
4.89819e-10
-1.4384e-09
0.00015702
-3.81329e-07
2.03177e-14
-2.03501e-14
-5.42642e-15
3.78739e-08
1.68018e-06
-2.3949e-20
6.53262e-10
-4.46497e-10
-9.25565e-06
2.66474e-06
9.16139e-07
-1.9347e-06
-9.64926e-06
3.08878e-06
-7.48019e-11
7.32748e-11
-1.60376e-05
-8.00368e-08
2.21605e-06
1.05021e-08
2.84707e-05
-1.55467e-05
2.96909e-06
-1.25539e-05
1.72037e-05
-7.45819e-06
-2.11891e-15
0.000415689
1.04577e-05
4.81315e-05
-2.66309e-14
1.05458e-05
-9.19874e-06
3.39013e-14
-6.49384e-14
-2.21002e-06
-1.85442e-05
-3.59514e-07
1.45925e-05
2.48981e-08
-6.13521e-08
3.02086e-07
-4.00139e-06
1.03342e-08
2.71954e-08
-1.22654e-09
1.86024e-05
-3.65349e-07
-3.75717e-07
-2.35594e-08
-2.12411e-09
1.74823e-08
0
5.30249e-07
-2.31504e-07
3.65427e-12
-1.16974e-12
1.49523e-19
-1.51336e-19
-9.71946e-15
-1.96734e-05
-4.56613e-13
-6.54027e-09
-4.17569e-11
-8.01376e-09
3.01635e-08
-1.19926e-10
0
-6.88821e-06
1.57621e-05
-0.000117992
-2.71958e-08
1.10355e-15
-7.84793e-15
1.30635e-15
1.10968e-11
1.26367e-09
1.21533e-15
-1.77846e-15
-0.000322897
0.00110699
8.66184e-09
7.45205e-11
-1.36551e-10
-6.25149e-06
1.70182e-05
-1.95102e-07
-9.82944e-07
1.5379e-07
-7.22934e-06
2.52216e-05
3.42636e-06
2.07488e-06
-8.80168e-09
-1.91846e-07
-5.50456e-11
-8.00807e-07
1.81958e-08
1.5636e-08
-2.15516e-10
6.93284e-07
-3.3857e-07
-9.28409e-07
1.32626e-06
-0.00029381
0.0010518
-7.44726e-20
6.69135e-14
-7.34909e-14
2.34118e-05
-1.25001e-05
-5.18491e-13
9.70768e-13
-2.51842e-09
-1.39738e-07
-1.19766e-06
-1.61862e-07
-3.11191e-13
-8.58986e-11
8.31557e-06
-8.80341e-06
1.52914e-07
-8.30163e-06
0.000153729
-0.00010243
0
-2.31452e-06
9.40844e-06
0.000121265
0.00131412
0.000122757
-1.87006e-06
6.94667e-07
6.21545e-10
3.20554e-08
5.75939e-06
-7.96871e-09
-5.78815e-08
4.32517e-07
-3.64644e-05
-2.62957e-19
5.98815e-15
5.71987e-14
2.83612e-07
-9.92402e-15
3.07589e-06
1.76148e-08
-1.93543e-08
-4.33509e-09
2.63394e-18
-2.71315e-18
0
-4.34048e-08
-1.30072e-05
1.62738e-05
4.13335e-05
0
-1.4345e-08
1.1317e-05
-4.06891e-06
6.59924e-07
-4.73293e-07
-7.36069e-07
4.37227e-06
-4.32668e-09
-2.13264e-08
0.000282589
0.00127327
0.000813216
-3.85372e-08
-3.02545e-07
0.000241289
0.000958111
2.0228e-14
-5.13287e-14
-2.34391e-07
1.80327e-09
-4.28893e-10
4.09075e-05
8.49593e-05
-0.000124694
0.00159021
0.00117457
0
-2.45613e-08
-1.72127e-17
2.36842e-16
-2.0064e-10
1.32293e-05
3.55605e-06
3.05417e-08
-1.21233e-08
-4.13002e-08
-8.97693e-10
5.85713e-10
1.92611e-10
-2.71459e-09
4.65533e-07
-3.11845e-07
-1.86966e-07
-3.30579e-09
3.3408e-20
-6.66244e-20
-1.763e-05
-6.90335e-07
-0.000550521
0.00035965
1.12407e-08
7.0772e-07
5.5848e-06
-1.11664e-15
-2.76269e-16
1.07783e-07
7.07189e-07
-1.29829e-06
-1.73236e-12
4.17479e-06
7.22104e-11
-1.25786e-08
0.00126842
-1.45207e-06
3.6853e-07
5.4271e-14
-8.34959e-14
-1.77795e-18
-2.30373e-14
3.18177e-07
-1.2975e-09
-9.34347e-11
3.51805e-11
0
-0.000116488
0.000890836
-1.73786e-08
5.95589e-09
-2.88879e-06
1.76238e-05
-1.0803e-05
4.63354e-06
1.35273e-05
-7.41521e-06
-3.24131e-17
3.18161e-06
3.79564e-05
2.45655e-11
1.88006e-07
1.10195e-06
-5.08851e-06
1.85748e-06
1.60479e-16
-3.33048e-07
-2.46055e-09
-5.85939e-08
4.75941e-07
-1.92964e-07
7.15458e-08
-1.74022e-08
-1.92365e-11
8.56066e-07
-1.80352e-08
-1.11838e-10
2.05442e-06
-8.92138e-06
1.19981e-05
-2.55552e-06
1.61766e-05
-1.07363e-05
-9.80982e-09
3.359e-11
2.69422e-05
-3.47078e-08
-5.52219e-09
-1.05933e-05
1.38985e-05
-3.20424e-20
1.97537e-08
5.15408e-06
-1.41608e-05
-0.000467562
0.00128105
-1.91323e-16
7.04464e-14
-9.65918e-14
-5.73075e-08
2.8166e-09
2.16679e-08
6.19252e-10
-3.4766e-08
1.50329e-05
-1.2307e-05
1.63542e-07
4.60671e-07
-3.64108e-07
4.96412e-20
-3.46426e-19
0.000119365
0.000295475
-4.24106e-06
-1.08565e-15
-1.46788e-09
-1.19452e-05
4.32067e-06
-0.000159503
0.00132772
-4.26626e-06
1.5565e-05
-1.79765e-07
-4.75131e-14
-9.38449e-08
-5.63661e-07
0
0
-2.12676e-10
4.40576e-08
0
2.21743e-10
-3.24617e-08
0.000237259
-7.84799e-05
-0.000158779
1.91851e-13
-6.09611e-12
0.000813436
-1.73025e-06
1.04439e-08
6.87841e-16
7.88851e-08
-2.60093e-06
4.20563e-06
-2.03076e-08
-1.79262e-08
1.88545e-05
4.76204e-19
-1.96979e-19
2.69976e-07
2.71485e-06
-4.78944e-07
2.88717e-19
-2.44062e-18
-0.000535052
0.000719893
-7.02999e-06
1.37006e-06
8.62813e-06
0.000174758
0.00140978
-3.19696e-06
-3.03258e-07
-3.12423e-07
5.55178e-08
1.36754e-15
4.69366e-05
-4.69479e-05
3.72957e-06
0.00112176
-6.87653e-07
0.000125807
0.000111452
1.96065e-08
5.03365e-09
-8.46754e-10
-1.18436e-08
0.000524742
0.000134981
-1.10454e-08
5.72465e-05
-8.45546e-05
-1.34949e-18
-1.23996e-08
7.86801e-09
-4.96859e-20
-1.79127e-05
5.16946e-05
-6.34215e-06
0.000388553
-0.000167679
0.000134141
0.000405189
-4.89619e-06
7.52751e-06
1.06302e-13
-1.07432e-13
-3.25652e-09
5.08305e-05
-1.82685e-06
1.5829e-07
1.66625e-06
7.57602e-07
-3.46977e-12
3.06643e-08
-3.66593e-12
2.05652e-08
0
-3.0322e-11
0.000171577
0.00149057
1.45261e-08
-4.51894e-08
-4.2878e-19
-3.32175e-10
2.96265e-10
3.17612e-11
-6.39606e-14
-9.17533e-06
5.47625e-07
4.44685e-07
-2.68127e-07
4.58007e-06
0
-1.39226e-15
2.03722e-06
-7.73477e-08
-1.37992e-11
1.66354e-12
-2.42864e-07
0
-1.29915e-09
1.29499e-09
-8.52374e-11
-2.43909e-10
3.68138e-10
0.0013551
2.52371e-05
-0.000263858
-1.72744e-11
4.8175e-12
-1.76764e-12
-1.20229e-11
2.14968e-06
-1.38294e-06
2.17933e-18
-1.09067e-15
1.74181e-06
-0.000527121
0.000639308
1.55684e-07
-3.97274e-09
4.18483e-07
-1.48911e-07
-0.000831769
0.00168448
4.49052e-06
-3.0702e-06
-3.07779e-08
7.93907e-09
1.94463e-06
2.85684e-07
4.06524e-07
-1.23666e-07
-1.06487e-06
6.67807e-06
0
-5.28886e-14
7.63649e-07
1.19755e-07
0.000723583
-1.06665e-06
0
8.34442e-20
-1.2733e-19
3.59944e-09
-2.577e-08
1.22277e-08
1.02459e-05
1.23952e-15
-9.14821e-16
-6.67934e-06
-1.76182e-06
1.03996e-07
9.38449e-08
-3.1408e-11
-3.16727e-07
0.000234484
0.000390769
-0.000266671
-9.63108e-15
-6.87865e-07
5.77417e-07
-3.02357e-08
-6.92767e-19
-1.07939e-13
9.59439e-07
-9.5973e-07
-1.09042e-09
-1.83993e-06
0.000175539
-5.70676e-05
-1.80508e-05
9.02635e-07
-6.30323e-09
-3.77267e-10
1.11618e-09
2.03691e-19
-1.03673e-18
6.78794e-07
-4.01753e-09
-3.32056e-08
1.40243e-09
0
1.49886e-07
5.6711e-16
-1.48008e-17
1.06536e-13
-1.09753e-13
-3.35262e-08
2.82765e-10
-1.2316e-08
1.82663e-05
-1.70252e-05
-0.000183706
0.00019527
-1.1228e-10
3.39887e-11
-0.000437602
0.00155957
1.71586e-06
-6.74705e-05
-4.81575e-05
-5.34481e-05
7.41922e-05
1.11855e-09
0
1.04337e-10
0.00124709
-6.75327e-12
2.97566e-12
3.49822e-16
4.27649e-07
3.08214e-12
-6.35022e-12
-1.2805e-10
0.000192354
-3.56816e-07
9.04514e-08
3.06716e-18
-6.86117e-18
7.29024e-06
-7.32968e-06
5.56972e-07
-2.04437e-07
7.9033e-07
-5.67307e-08
6.48589e-07
-4.48258e-20
-7.89783e-12
-1.36012e-10
8.9014e-15
-3.60304e-14
0.000578197
-0.000578199
0
8.92743e-09
-2.70412e-08
-3.23489e-06
2.23711e-07
1.52658e-07
-7.06009e-08
0.000233674
5.42049e-05
6.25872e-07
-2.39484e-07
5.42293e-07
-9.21534e-11
4.01234e-11
3.08262e-07
-1.19179e-07
3.70874e-12
-1.58434e-11
-0.000909856
0.00224092
-8.07705e-21
-4.88348e-08
3.74376e-08
-4.73269e-07
4.20304e-07
8.96766e-06
-3.8932e-07
1.53038e-05
0.00146809
6.63777e-18
-2.4587e-19
-3.92489e-12
-1.42452e-07
-3.97932e-07
4.8174e-12
1.10043e-16
-1.96335e-05
1.00665e-06
1.54869e-07
-8.9828e-07
0.00156763
1.35979e-07
0.000204405
0.0011986
-2.50716e-17
8.17297e-06
-6.49314e-07
-5.04416e-07
4.70294e-07
7.13481e-07
-8.43424e-07
2.48319e-10
-3.46798e-22
0.000227845
0.000169392
-0.000230428
-8.49954e-07
-7.4718e-10
3.89264e-09
1.70582e-06
-9.40304e-11
-1.67019e-16
-3.46581e-12
-5.33832e-12
2.02153e-06
-1.11535e-07
-1.46032e-08
-5.60297e-11
-3.1102e-12
-3.43512e-12
1.37734e-06
-1.75147e-07
1.0312e-17
-1.55161e-17
-0.000128786
0.000268767
1.5041e-06
-1.46702e-07
4.31124e-14
-5.80705e-14
-1.51657e-14
3.53213e-13
-4.66138e-13
-2.95215e-07
1.42279e-07
1.05531e-06
-9.06637e-08
1.69421e-07
-0.000891824
0.00109004
-2.37324e-17
0
0.00018196
0.00112911
3.07e-06
-1.02833e-08
5.97536e-07
-9.12214e-11
1.3258e-15
-0.000612496
0.00186151
3.6623e-07
-1.45262e-07
-3.6278e-11
1.01953e-07
1.11551e-10
-1.31664e-15
4.44135e-09
-1.3868e-09
0.0015896
1.1587e-12
-1.476e-10
0.00163053
2.69422e-06
1.86396e-07
2.1982e-19
-2.11906e-19
-4.30709e-19
-5.69372e-09
5.82518e-07
2.03675e-07
-5.03612e-06
0.000206833
-0.000201796
4.81035e-14
-4.85225e-14
0.000312679
-1.99062e-21
-2.05131e-07
-2.25635e-08
1.01899e-06
-1.98582e-08
3.8525e-06
9.44439e-07
-3.44416e-07
4.30219e-07
3.16601e-07
-4.48706e-13
3.23516e-06
-2.20779e-09
7.38865e-09
3.20144e-07
-4.87939e-07
-1.50032e-08
-3.31138e-11
6.57247e-20
-3.88561e-20
2.91646e-09
4.24787e-09
8.85093e-17
3.68104e-05
2.33466e-06
-0.000227178
-1.53134e-12
1.12959e-06
-1.92541e-07
-0.000578619
0.000966484
-2.29857e-08
2.38154e-08
-1.29387e-07
3.92087e-07
4.19601e-06
4.90507e-07
-3.26666e-07
7.71526e-12
-1.04636e-11
2.66234e-07
0.000143687
-4.7267e-09
1.80157e-09
1.64144e-05
1.93498e-05
2.41763e-17
-1.12604e-16
1.55238e-06
-2.16387e-07
1.24301e-05
-9.59684e-06
1.12081e-05
0.0015522
3.0447e-13
-1.47505e-08
0
1.35188e-07
6.87715e-07
4.43613e-08
3.51165e-09
0.00186777
3.02183e-21
-3.37598e-21
1.72187e-07
6.51625e-07
-9.47958e-21
6.92368e-08
-1.9507e-10
-2.01469e-10
5.77988e-13
-2.96341e-12
0
-8.11356e-08
6.08764e-12
-9.68101e-12
-3.77854e-08
-1.26698e-07
-1.11319e-08
-3.50054e-07
4.20868e-07
-2.52262e-07
9.92591e-07
9.20036e-07
1.89931e-06
5.50227e-12
-1.37232e-11
5.89205e-07
0.000261686
-9.23134e-05
-4.83872e-09
8.17486e-10
-3.21867e-09
7.63894e-08
-2.96967e-10
-1.75416e-19
-5.76824e-07
3.5801e-07
-2.49329e-09
-1.19334e-20
3.47539e-07
-3.09107e-08
7.54803e-12
-2.75297e-13
-1.73825e-11
0.000469056
1.94457e-06
-0.000327874
0.00196964
1.36462e-08
-3.33313e-09
-9.35456e-10
-6.75323e-09
3.7916e-10
0
2.25908e-13
-3.51399e-14
0.000131362
0.000137489
-2.94129e-07
1.55095e-06
0.00084555
-2.37098e-09
1.19605e-07
3.07919e-13
-1.88465e-12
-8.20007e-16
3.56632e-14
-2.37782e-14
-1.86087e-13
-1.50004e-08
-7.28525e-11
-1.28182e-07
3.74531e-06
6.18206e-14
-1.05712e-13
-1.46681e-07
4.09716e-10
2.80813e-15
0.000388439
-9.62972e-22
3.21743e-21
-5.22601e-21
4.7051e-08
-4.42282e-07
-1.31146e-10
2.07984e-11
-2.38586e-10
-6.27062e-13
6.12291e-07
1.30472e-07
2.62169e-08
7.17258e-17
-3.37783e-12
0.000296196
0.00127711
0.00183185
1.00106e-07
-1.87613e-08
1.22251e-07
3.32055e-09
-1.63616e-07
2.12838e-07
-1.63761e-07
1.04924e-05
-4.05607e-12
-2.89262e-09
-2.50694e-06
8.88773e-07
4.08909e-16
-2.28733e-15
-2.59296e-08
3.09099e-08
-8.19726e-08
-2.2118e-09
0
-4.01488e-11
0
-8.90609e-05
6.02244e-05
-1.39992e-06
2.00707e-06
7.45634e-16
-1.16075e-06
-8.48472e-07
-4.35124e-10
-2.19462e-12
-1.07368e-08
1.79027e-09
5.52043e-09
-1.09282e-09
2.82896e-08
-5.57395e-09
-9.67119e-12
-9.50071e-10
0.000127136
-1.74315e-22
-6.93695e-10
8.9592e-11
-2.84783e-06
3.01006e-06
1.15604e-18
0.000344784
0.00151821
-3.47517e-07
2.36271e-07
0.00231002
1.94691e-07
-1.07118e-09
4.73961e-11
-9.09901e-10
2.5396e-10
-4.9159e-10
0.000929103
-6.26948e-05
-1.38983e-08
1.29007e-08
-8.34736e-11
3.19296e-11
-2.10454e-08
5.6618e-16
-3.25002e-16
1.02825e-12
-1.25988e-12
-5.6767e-11
2.76806e-11
-1.98016e-06
-8.5727e-05
-2.54186e-07
0
9.36543e-08
-8.51822e-08
3.37509e-08
5.04762e-21
-3.29263e-19
-4.435e-13
-1.32657e-09
-1.6403e-12
2.87544e-15
-3.45381e-11
2.34137e-07
5.51658e-11
-1.6659e-10
1.93614e-16
-2.26434e-16
-6.95695e-16
1.27528e-09
-1.99304e-06
2.01154e-06
-2.67585e-08
-7.82187e-10
-5.54365e-12
0
0.00134308
-2.14846e-08
-1.59202e-07
7.5104e-08
3.54351e-08
-1.32766e-07
-2.74707e-17
9.22276e-17
-5.45734e-07
2.15466e-08
-7.93214e-10
3.52764e-10
3.17211e-09
-1.81656e-09
1.99728e-08
2.21527e-08
-2.16068e-08
6.07729e-13
-1.28325e-12
-2.92838e-07
3.87376e-05
4.23981e-12
-1.07342e-11
-3.41686e-10
0
2.87717e-08
5.62502e-14
-5.42604e-14
-1.4474e-09
-4.01322e-06
6.89515e-07
1.86607e-10
5.10975e-08
-1.69424e-08
4.41438e-09
6.20568e-16
1.55242e-14
-2.2898e-15
5.10429e-08
4.09642e-11
-1.95841e-09
-3.96158e-11
-2.33423e-17
-2.60582e-22
-5.64375e-10
1.00569e-11
-1.21478e-11
-3.35533e-07
1.867e-07
-3.95889e-12
-9.41472e-08
-2.29034e-08
1.01883e-16
3.68603e-15
-4.05578e-15
-0.000783026
0.00229444
-9.88559e-13
-1.70608e-09
0.00104165
5.77872e-09
1.05946e-08
-7.49691e-08
1.44018e-07
1.09197e-19
-1.01465e-19
-4.3294e-07
2.30982e-08
-1.12134e-10
-2.46618e-09
2.6973e-09
-4.46444e-05
5.53356e-05
-1.00171e-05
-1.16335e-10
1.95389e-17
-8.55348e-08
-8.03187e-13
-3.11847e-10
-2.24182e-11
-2.28868e-13
1.97104e-14
2.11237e-05
4.10333e-12
-1.8153e-12
4.11841e-05
3.0095e-05
2.32481e-12
-2.62415e-12
-1.99686e-10
8.4246e-20
-4.35568e-20
-2.02516e-08
4.1953e-05
-6.04092e-05
6.03862e-05
0.000822065
0.00148385
-6.20458e-14
1.6466e-18
-5.54902e-18
0
-6.44963e-13
3.58034e-07
-3.74488e-07
2.89782e-08
0.00233364
-7.34073e-14
1.62768e-08
-6.23322e-13
-0.000209798
0.000117486
3.62238e-15
-3.12584e-13
-2.54073e-12
2.27365e-08
-1.40028e-09
6.05378e-11
5.60814e-08
2.14624e-12
-9.71843e-13
-8.42081e-08
1.51859e-08
0.000247861
0.000751546
-1.44104e-07
2.1487e-08
-2.19133e-08
2.47975e-11
-2.96557e-07
2.28285e-09
1.42376e-20
-3.82473e-21
-5.64888e-09
1.13503e-09
-1.01237e-09
-0.00011283
1.26386e-08
-1.02782e-08
-5.95793e-10
3.0476e-11
0.00022082
-0.000195583
-3.84747e-10
-2.0239e-10
7.37755e-11
0
-5.54734e-10
-2.7805e-12
-1.45838e-09
3.8337e-10
-2.94473e-09
1.81403e-07
-9.72555e-07
1.05398e-13
-5.63657e-12
-1.06129e-11
2.22129e-11
-2.35427e-08
3.8849e-10
0.000126814
-0.00013185
-5.27061e-21
1.21683e-09
-1.45326e-09
-1.55214e-11
2.25386e-11
7.65532e-10
-7.78936e-13
2.07994e-06
1.63286e-05
-3.33545e-10
0
0.000156715
-3.0477e-11
5.80529e-09
-1.48065e-10
2.09561e-15
-4.4417e-15
0.000169392
2.00364e-10
-3.37845e-11
-4.83837e-10
-2.08671e-11
5.07191e-10
0.000213233
-6.139e-08
1.69853e-06
2.02186e-08
4.03752e-21
-5.13813e-21
1.85308e-17
-2.09352e-08
4.687e-10
4.70687e-15
-7.17227e-14
7.15113e-15
-1.44165e-15
-1.35389e-09
-1.54572e-15
-8.12868e-16
2.92817e-06
-5.93346e-06
-2.0128e-13
-2.01384e-06
0
4.94638e-13
-4.432e-13
5.63237e-12
-1.22928e-10
-0.00125578
0.00273557
0.00103488
-5.67901e-11
1.30554e-07
-3.97674e-10
1.95129e-10
6.27999e-13
-7.50903e-13
-2.35507e-08
5.01774e-07
1.78748e-13
-5.92367e-10
-3.20906e-13
-1.26417e-11
1.3356e-12
-9.17524e-12
1.16851e-08
2.81242e-15
-2.88704e-16
0.000199559
-6.81965e-05
0.000428039
-0.000207218
-2.89221e-16
2.62493e-13
-4.07157e-13
-9.12866e-13
0.000121079
-4.46375e-12
0
-1.9371e-07
2.73974e-07
-4.39422e-09
3.10314e-08
-3.40958e-13
-3.23355e-06
-5.61671e-14
-2.28174e-09
8.10122e-10
1.42305e-17
0.00061595
0.0013653
2.36591e-08
-3.26251e-09
7.32498e-18
-1.28894e-17
-3.97328e-10
6.55724e-12
-3.28745e-12
-6.28438e-13
-1.30475e-08
8.40888e-08
5.44421e-05
-2.95064e-09
-3.20018e-10
1.14924e-11
-1.19971e-11
1.85613e-15
-2.94264e-15
-0.000439752
0.00128235
-5.36836e-14
1.10046e-20
-1.53282e-20
4.09362e-11
-2.50925e-10
-7.94965e-09
2.6647e-10
4.55363e-10
-1.43182e-14
-1.03786e-11
1.5354e-15
-3.21869e-13
-2.17905e-12
-6.14639e-14
0.000270818
-0.000144003
-9.46784e-15
3.61446e-09
-2.75756e-15
1.79567e-15
-7.79166e-16
-1.57651e-12
2.11759e-13
-1.54774e-10
5.89033e-12
1.26206e-12
-5.02668e-10
1.13299e-11
7.52342e-05
-2.4319e-10
6.68316e-13
2.6927e-13
-1.92994e-13
3.74792e-19
-5.75866e-15
-8.95074e-07
-2.15643e-06
-2.83639e-15
2.28331e-15
3.77946e-15
5.02103e-09
-2.2379e-13
-1.39122e-14
4.02556e-16
-3.577e-15
2.41056e-08
-5.79756e-09
2.21535e-15
-1.94665e-16
-1.39577e-11
3.83912e-10
-3.12875e-11
-4.40442e-16
5.7547e-14
-1.25355e-14
-4.82794e-16
-1.21988e-12
8.21973e-13
-5.04858e-13
-2.82067e-16
-1.96141e-14
1.67252e-08
7.22643e-12
-8.88418e-14
-7.68786e-11
1.44839e-08
7.01394e-14
-1.89253e-12
-1.01144e-08
2.8909e-16
-5.3239e-17
1.70766e-06
-2.63192e-07
6.04323e-08
-1.21157e-17
-5.70253e-05
-7.52349e-07
-1.49513e-15
1.80984e-15
1.83232e-14
-2.22046e-14
-7.25837e-15
2.78944e-07
-2.61861e-13
-5.76945e-12
1.1499e-12
-7.90188e-16
-2.00322e-13
5.77456e-14
1.51606e-15
-1.48226e-14
-5.5843e-15
3.007e-15
6.19583e-20
4.17124e-21
-4.47078e-05
-0.00166806
0.00302951
9.90511e-05
-0.000230901
-2.80327e-19
0.00106373
-6.64893e-12
5.03623e-12
-3.99971e-12
3.02595e-13
1.32361e-09
-9.30919e-10
7.85213e-15
-1.01041e-14
-3.56113e-14
1.23822e-16
8.01073e-13
-9.99647e-13
-7.68297e-09
-5.87693e-14
-5.41619e-16
0.000213944
-0.000114892
2.60922e-10
1.77928e-08
-2.07627e-13
-2.27133e-05
2.00141e-05
4.83622e-08
-4.38314e-08
-2.09019e-05
5.88135e-06
6.66634e-14
-7.03393e-14
-0.0010298
0.00188287
-0.000105095
-0.000164376
9.6179e-05
-2.35513e-07
6.55705e-08
-7.67051e-13
2.86381e-14
0.000207218
-0.000131984
-1.1429e-15
-1.15716e-11
4.40591e-13
-0.00014302
0.000111663
-1.13262e-08
2.66745e-09
2.70653e-14
-3.50433e-14
-5.93332e-10
9.2378e-11
3.86258e-19
-0.000271945
2.91635e-05
0.000239953
-1.69729e-11
1.77404e-11
-1.23356e-13
-0.000191751
7.88176e-05
6.24104e-18
2.18093e-15
-6.05315e-17
-9.154e-12
8.5819e-12
-3.12496e-12
8.25012e-13
0
4.27632e-05
-2.74572e-14
-2.90436e-12
-2.35472e-15
2.16733e-15
-2.11251e-13
-5.42113e-15
5.00082e-15
4.48547e-14
-1.41178e-11
1.58125e-07
-2.3683e-07
7.2031e-08
6.39159e-14
-5.64156e-14
2.14107e-05
-1.86891e-05
4.29984e-15
-2.24647e-15
-4.68899e-05
6.90254e-15
-2.65367e-13
5.3848e-17
-2.29726e-16
6.65235e-14
2.06923e-06
3.60665e-07
6.99402e-05
-7.94452e-12
5.73495e-12
-7.48826e-14
9.94277e-15
-4.70964e-14
1.62072e-15
-1.15231e-12
8.38163e-13
2.84959e-16
4.16303e-08
1.71865e-14
7.19575e-16
-1.33907e-15
6.09023e-19
-3.88161e-14
1.92577e-14
1.74901e-06
-6.28514e-08
-1.60802e-06
1.77924e-16
-1.70102e-16
1.57782e-17
5.17016e-17
5.07309e-17
-2.59662e-15
2.01516e-14
-1.9286e-14
6.31531e-11
-2.24293e-15
1.38825e-05
-1.44245e-05
-2.05407e-12
3.88322e-13
-1.87463e-09
9.95741e-10
2.94985e-05
-5.52557e-05
2.99778e-13
-5.60464e-14
-1.79241e-13
6.96396e-19
-1.29849e-17
-2.43171e-14
3.45397e-15
3.58754e-13
-3.14943e-14
-4.90103e-12
2.50386e-12
-1.00939e-17
-1.29062e-11
1.10436e-12
-7.36438e-11
5.73321e-05
-6.54118e-05
9.72102e-14
-1.60831e-13
-1.04139e-13
-9.35974e-18
5.18393e-14
-1.49903e-12
1.11589e-19
-4.5844e-10
-1.30804e-10
1.44847e-13
8.09203e-15
-1.31237e-17
9.97658e-05
-0.00020486
9.65908e-14
0.00017447
-7.47042e-05
-4.97837e-14
1.71554e-06
1.10498e-15
1.22008e-16
-1.16155e-16
4.66846e-16
-3.35522e-13
1.11638e-13
0.000131984
-6.20438e-05
4.71756e-13
-6.89045e-13
-3.60069e-15
1.22812e-14
5.95775e-05
-0.00164842
0.00257724
0.000523974
-0.000287383
1.12839e-14
-1.70386e-14
-4.6059e-15
-6.93267e-15
-8.37817e-05
-1.29205e-15
1.01549e-16
-3.06268e-16
6.18231e-05
-4.93788e-05
2.93333e-14
-7.73783e-15
0.00114877
0.00117842
2.43641e-14
-2.28392e-14
-1.73075e-12
8.6677e-13
1.10864e-16
4.50391e-14
-5.69839e-14
0.000273546
1.48683e-16
-1.00167e-16
-2.02813e-12
1.68784e-12
2.27424e-16
-1.24637e-12
1.60898e-16
-1.73104e-16
-1.79519e-09
4.71467e-10
-0.000154585
7.08034e-05
-8.83395e-14
8.94113e-14
-0.000111663
6.47732e-05
7.7679e-15
2.41543e-14
2.60955e-15
-5.6124e-14
5.08125e-14
8.02633e-16
-8.96772e-16
1.55863e-15
3.73133e-14
-5.16498e-14
-1.29116e-16
1.18281e-16
5.49049e-05
-6.04901e-05
-6.644e-10
3.56018e-07
5.05825e-15
-2.32608e-14
-8.8865e-13
4.7187e-13
-1.54094e-12
3.04044e-13
-1.78664e-17
0.000221859
-8.73057e-05
-0.000270339
-1.08461e-13
5.684e-10
-1.98488e-14
2.84416e-14
-1.34519e-14
3.36511e-15
8.90044e-17
-9.88119e-17
-8.82417e-13
6.20438e-05
-2.46636e-06
-1.20901e-16
1.07905e-16
-6.0211e-12
7.49299e-13
-6.38168e-15
3.71632e-15
-1.07895e-16
9.85258e-17
8.90111e-05
-0.000114579
-3.65996e-07
2.4257e-06
-5.8406e-05
-9.14982e-17
8.08704e-17
3.00681e-17
-1.4934e-17
1.72621e-13
-1.5099e-13
1.09135e-14
-6.44703e-15
3.07153e-18
-3.09339e-16
-8.94991e-11
1.54929e-16
-1.77842e-15
1.25218e-13
-4.26834e-14
-1.46789e-12
1.24865e-12