/*--------------------------------*- C++ -*----------------------------------*\
  =========                 |
  \\      /  F ield         | OpenFOAM: The Open Source CFD Toolbox
   \\    /   O peration     | Website:  https://openfoam.org
    \\  /    A nd           | Version:  8
     \\/     M anipulation  |
\*---------------------------------------------------------------------------*/
FoamFile
{
    version     2.0;
    format      ascii;
    class       volScalarField;
    location    "0.6";
    object      alpha.water;
}
// * * * * * * * * * * * * * * * * * * * * * * * * * * * * * * * * * * * * * //

dimensions      [0 0 0 0 0 0 0];

internalField   nonuniform List<scalar> 
1924
(
0.0728483
1.90278e-06
7.43314e-09
2.94754e-10
0.000328264
7.49087e-10
8.6499e-10
8.64689e-10
9.20615e-11
1.02405e-10
5.72189e-11
4.15851e-11
0.499327
1.6262e-10
8.57758e-06
9.98852e-06
0.0850048
9.15723e-09
0.517738
9.40882e-08
1
8.50054e-06
0.00880893
3.51711e-06
1.64245e-06
2.03061e-06
2.07422e-06
1.22037e-06
0.000666091
1.32985e-09
0.00880886
1.63546e-06
0.000418287
0.00899289
1.02437e-10
0.00880875
2.26789e-06
0.000766173
3.29803e-06
0.00881218
4.92692e-06
0.933977
3.56661e-06
0.230406
8.27739e-11
1.3757e-05
0.401925
1.56167e-11
1
1
0.998417
0.208445
0.000263967
0.71338
1.36935e-05
1.02348e-10
0.540053
2.24995e-08
0.000978193
0.000203821
0.867536
1.35059e-05
0.998201
4.46689e-06
0.474344
1.7212e-11
2.80685e-05
0.00880893
0.000200474
0.998466
0.323115
2.70423e-05
2.76976e-06
1.16083e-09
1.99301e-14
0.0609517
1.90439e-11
4.09362e-14
1.41967e-11
0.998459
6.64615e-12
1.32807e-05
1.38069e-10
0.852035
0.000610592
0.0204737
2.47593e-09
8.66319e-06
1
0.305646
5.62576e-06
1.28744e-05
1.3677e-05
1.42577e-05
0.0317048
3.01843e-06
8.30797e-11
4.29166e-12
0.000178689
0.0463436
4.03055e-07
0.0840093
3.71438e-06
0.000359715
0.000164415
1.84319e-12
6.13316e-05
0.000187963
0.00822555
1.3757e-05
1.60823e-11
0.000432107
0.000766173
5.41132e-06
1.37471e-11
0.960047
1.50161e-09
1.00281e-05
0.0325897
1.90474e-11
0.656194
1
1
0.511767
1.94816e-05
1.58306e-05
0.0344589
7.55349e-13
4.58614e-05
1
1.61132e-11
4.98046e-09
0.0221624
4.59964e-08
0.0350274
3.65377e-05
0.000390268
0.000525101
0.00100685
5.2288e-05
9.06665e-11
5.39887e-05
0.529826
0.0077448
1.46334e-09
1
8.45247e-05
0.0313468
0.009784
0.0153929
2.24365e-09
1
0.0923022
4.84694e-09
6.28366e-10
1.58488e-05
1
4.10107e-07
1.77399e-11
0.00162341
3.26671e-06
0.0352208
4.77047e-09
1
0.00268068
1.58641e-05
2.00286e-05
1
1.91025e-11
1.77929e-05
1.44026e-05
6.18441e-10
8.02925e-15
0.00120863
1.0244e-10
0.000869458
3.16469e-05
0.417931
0.00880893
5.43226e-08
4.88481e-05
0.000701191
3.18848e-12
0.000170558
1
1.90278e-06
0.0585869
6.76589e-09
9.96588e-12
2.49531e-08
8.6201e-05
6.10503e-10
6.98313e-12
1.93606e-08
7.39629e-05
1
5.99847e-09
0.000466306
0.000487312
0.00576614
0.0277869
1.90252e-06
2.22659e-05
2.82256e-10
1.877e-05
0.000167032
2.73914e-10
0.0904114
0.0391754
0.0670773
1
1.77135e-05
0.00699243
1.98498e-05
5.98191e-09
3.21512e-12
0.00927907
0.000565749
2.7707e-10
6.83205e-13
0.000379584
8.75574e-11
9.70386e-06
0.00698434
6.19719e-11
3.00909e-07
5.6978e-12
8.0406e-15
3.16791e-10
0.00305033
0.0508779
0.000558964
7.4069e-05
0.0879229
1.86063e-09
0.00662497
0.00700097
1.6636e-09
8.84995e-06
1
0.00490141
0.000196603
0.00700098
0.0555939
0.0819946
0.0316771
3.57251e-10
1.58064e-10
2.42277e-12
8.02925e-15
0.0799288
1
9.25896e-09
2.22761e-05
4.55682e-12
0.00276273
2.06028e-06
1.09364e-07
0.000537245
2.04818e-08
0.000249925
3.17903e-10
0.00116929
3.9321e-12
1.63932e-06
1.99833e-14
1
3.21599e-13
0.000836093
0.529843
0.00077094
6.54925e-09
1.41693e-05
1.56586e-07
0.000780867
1.29977e-11
9.05214e-09
2.05122e-09
1.1072e-05
0.000544569
0.125035
1
4.18587e-06
3.2344e-10
0.716629
3.21816e-12
4.05419e-12
1
4.84146e-08
7.53173e-09
3.09978e-10
3.08681e-06
2.12162e-09
0.00692491
1
0.00227754
8.4914e-06
0.0461642
6.21665e-13
0.000914992
1
1.53036e-06
0.00700097
0.000243675
2.81025e-07
3.72633e-07
0.999557
0.00328026
1.61878e-07
8.65084e-11
0.0888611
0.023948
3.29606e-10
0.0002512
9.39038e-13
0.997187
2.39007e-06
6.85952e-06
3.16542e-10
3.74832e-07
2.02241e-14
0.000772286
3.2584e-10
0.000483517
3.01248e-08
1.41743e-14
6.76094e-09
3.72701e-07
1.42891e-10
3.97869e-12
0.000772917
0.00434387
0.000115794
3.50219e-06
7.02845e-15
2.94629e-08
0.000358669
3.11935e-10
3.32e-10
2.73914e-10
1.38051e-14
4.92301e-05
0.000522243
0.0265836
8.43978e-06
2.51509e-05
0.00638946
1.61238e-05
0.153119
2.05838e-06
7.81701e-06
0.419886
0.00412918
0.00699444
0.032187
9.45673e-15
1
0.000365767
4.55609e-06
6.0934e-05
3.71142e-07
8.32659e-06
0.007001
0.00312996
2.87215e-06
2.73914e-10
0.000524507
0.00101716
3.51159e-09
3.14927e-10
1.30418e-07
1.84233e-08
4.12286e-07
0.00490015
0.00368289
0.425088
8.35563e-06
8.4914e-06
0.000166506
1.61238e-05
1.77883e-05
1.7798e-16
1.54711e-07
9.60415e-08
0.000772286
3.62921e-10
7.8444e-14
0.00886846
0.00121133
2.73914e-10
0.00311938
0.000112882
7.24267e-07
0.00209954
3.37445e-10
0.154257
6.79637e-05
0.000680162
1.4228e-12
1.41763e-05
1
9.11007e-16
0.0356358
2.55624e-05
1
0.00498276
2.04634e-11
1.61238e-05
1.68441e-05
2.55113e-05
1.61224e-06
0.000115794
0.00574639
2.88414e-10
7.97649e-08
0.000748408
6.4015e-12
8.33119e-06
0.00798701
6.32942e-11
0.00201231
0.00134407
2.0451e-11
0.027643
3.19822e-06
0.00321301
5.39543e-13
3.74062e-08
0.000401411
0.00221491
0.0121463
7.70351e-13
0.002489
0.0395602
1.14144e-09
0.00875321
3.48486e-07
0.99985
7.37011e-10
3.45662e-06
0.000155736
0.00454133
1.10028e-08
0.0150155
1.64979e-05
0.215387
1.57424e-06
7.02793e-15
3.8141e-07
0.0119623
9.15528e-06
0.000108253
3.32e-10
2.1598e-10
0.000167796
2.12162e-09
3.37407e-11
8.77887e-06
0.0395259
0.00294103
3.76363e-14
0.00069158
0.995231
0.0275869
0.0316028
0.00477594
2.73623e-05
4.79695e-08
1.11577e-08
5.10264e-11
7.0962e-06
0.0123364
2.068e-14
2.28989e-11
0.000906587
7.57275e-15
2.76216e-06
0.005913
0.00150636
0.00205108
0.000134201
1.84897e-09
0.009784
3.63803e-05
0.000693426
3.58154e-06
0.00973676
0.00490141
0.00369786
9.40776e-13
0.999699
0.00926456
0.0395048
1.03492e-10
0.00520009
4.08742e-11
0.00350041
0.0121547
0.00972661
0.000532208
0.0051931
0.000483023
0.000249002
3.56729e-06
0.0276821
0.000450773
8.33119e-06
3.81562e-05
0.000106298
2.59975e-08
1.77306e-16
2.59484e-11
0.0121442
1.84268e-09
2.50187e-06
2.48212e-06
3.74218e-06
2.73381e-08
1.53211e-07
0.00485558
0.0324299
7.67496e-06
3.39151e-12
1.37948e-10
1.86063e-09
2.94804e-07
2.62729e-12
0.92883
6.22399e-06
4.78574e-08
0.00447031
0.00547669
0.000106091
0.0204664
0.0143752
0.000535114
7.74367e-08
0.000562606
0.484128
4.10971e-06
0.000518088
0.00184203
0.998467
9.12489e-16
5.8001e-11
0.00973641
1.06691e-09
1.28942e-05
0.00193678
1.17497e-11
0.00973623
0.0077182
0.00484595
0.0392049
0.00352654
0.020416
0.212086
0.998467
0.000669822
7.02861e-07
3.74218e-06
0.00311813
2.60526e-05
0.00334425
0.000116838
0.0232203
4.03762e-13
1.73597e-11
1.06651e-09
0.000112667
5.84813e-11
0.00916936
9.45432e-05
0.00235868
3.21733e-15
2.61066e-05
0.00880875
0.0356349
0.000147321
0.00545563
0.000399717
0.00186761
2.55974e-06
2.48212e-06
0.967944
0.998459
0.00135892
0.330423
3.01905e-11
0.000486646
6.08888e-06
0.0388787
0.529671
0.994663
0.998467
1.61506e-08
1.19803e-05
2.48117e-13
0.00143947
0.00300623
1.54425e-05
8.34393e-06
1.27758e-06
1.10149e-06
0.000106043
8.68949e-06
3.03971e-07
5.59553e-17
0.0201411
0.192256
4.40611e-06
0.00368775
0.0132861
1.14275e-12
0.000204896
0.00101725
8.53801e-09
0.00154022
0.663816
0.0018576
7.66915e-11
1.07913e-11
1.71758e-11
3.97876e-06
8.35874e-08
3.53161e-11
0.206347
5.44334e-06
3.73898e-06
0.00930141
0.00485506
0.00972268
1.09216e-14
0.00312977
0.0289714
1.04173e-05
0.00344307
0.00872361
0.00464251
6.36005e-11
0.00024271
1.59145e-06
0.000106055
0.000163527
0.000370616
4.87007e-06
0.000656625
0.00489738
0.000927972
0.000251957
0.00300928
1.49059e-06
5.72987e-05
8.55429e-09
0.0455974
1.28929e-05
0.00300776
1.4341e-16
5.51838e-05
0.00421393
0.00521421
0.99704
2.19803e-12
7.08307e-11
5.66056e-05
1.82013e-06
4.58311e-06
0.00463191
0.00565807
0.000105967
0.000106271
6.43645e-17
0.998531
1.24812e-12
0.000629266
4.23958e-11
8.75169e-07
0.0048583
0.993403
0.00957521
1.00911e-05
0.000638035
0.000357422
7.6445e-09
4.48835e-06
1.17194e-07
1.70012e-05
0.999999
4.31111e-09
0.8919
0.00105033
3.19824e-05
1.73049e-11
0.00196692
0.0030324
1.60031e-05
0.00944743
2.32091e-16
0.000105973
0.000706056
3.07535e-16
0.201173
0.00238811
0.0292955
0.994528
0.00237283
0.000192232
0.000169408
9.90594e-11
0.0256656
0.0030458
0.997012
0.000207603
1
5.7968e-06
3.65897e-06
1.38973e-06
0.149223
4.2149e-06
0.309515
3.22436e-15
5.25054e-06
6.37074e-17
0.00979587
0.00484892
1
0.423947
0.666886
0.020083
8.96103e-11
1.25602e-06
0.00421393
0.000542047
0.000611813
0.000316567
4.78768e-06
3.13099e-09
0.00089861
1.96717e-05
0.201193
0.986311
5.67469e-05
3.05277e-16
1.69742e-08
1.74821e-11
0.0150155
0.000105667
0.00967328
0.00568119
7.90802e-11
0.000576654
2.51984e-09
0.000945219
1.10149e-06
0.00274919
9.83721e-09
4.09598e-07
0.788857
1
4.67988e-06
4.3302e-09
4.037e-05
0.00463679
1.20293e-15
0.000706056
0.269565
0.000296717
0.000105967
0.993485
0.00270443
6.39565e-06
0.00270334
0.000541987
0.000676786
0.00937179
4.46139e-11
0.000118356
6.95242e-05
0.692226
0.000733909
0.108893
1.06937e-16
9.0031e-06
5.81238e-05
0.00620201
9.67088e-13
0.00482521
0.000685138
5.85198e-05
0.00122402
0.273268
0.149406
4.44931e-11
0.000194151
0.000117764
3.27178e-16
3.00054e-09
3.4511e-06
0.000892136
0.0245847
0.998492
0.0229776
0.000179199
4.13983e-07
4.00363e-16
0.00330633
1.10141e-06
5.93014e-06
1.12657e-06
0.000105967
7.48735e-13
9.08524e-11
0.000541987
8.91787e-07
0.00317929
0.00979587
1.67558e-08
0.997012
0.000183764
0.03934
0.0529231
7.17386e-07
3.9158e-06
0.997012
2.77777e-09
9.04502e-11
0.000106043
2.78223e-09
1.03919e-08
0.199999
0.000120917
3.25775e-15
0.00244425
0.00121617
0.000502017
0.000297233
1.79616e-16
2.27309e-08
2.15238e-11
0.999988
3.12002e-11
9.56052e-06
0.00270256
7.85635e-05
1
0.0357254
0.0005264
0.000128498
1.66903e-08
0.0211805
1.4934e-05
2.77777e-09
0.901792
1.1427e-16
1.69126e-05
0.000762305
2.3392e-05
0.00173047
0.991681
7.40117e-15
2.78699e-09
0.000129427
0.000762303
4.2306e-13
0.00465355
0.000383907
0.991661
7.81567e-05
0.199291
0.331235
2.46876e-12
0.0208557
7.93198e-05
5.39314e-05
0.000116974
8.10243e-07
1.30431e-15
0.0128251
1
0.000887269
1.64815e-06
0.0040351
1.64874e-08
2.3045e-09
2.09313e-09
0.00281005
4.76772e-05
4.08459e-10
2.77554e-09
2.77587e-09
0.000910829
1.00645e-14
0.685824
0.00229062
4.45748e-11
4.46161e-11
8.39253e-10
7.03288e-05
0.00626847
7.15759e-05
0.331235
9.6606e-13
0.0016559
0.943957
0.000748777
0.0014318
2.05947e-08
0.996693
0.000529482
1.75285e-08
0.000443384
4.11311e-07
1.49989e-10
3.07309e-06
0.944736
5.37429e-09
0.996642
0.002695
0.00025747
2.27587e-16
7.40121e-15
1.19398e-06
0.000433369
1
5.02487e-11
0.331235
5.68927e-15
1.5486e-06
0.000189031
1.6464e-05
0.000910588
3.481e-05
0.00275173
1.38902e-05
0.000295672
0.00881218
7.19625e-07
7.01724e-05
0.00055173
4.65458e-09
4.62664e-17
3.12647e-06
2.97839e-11
1.37372e-05
0.107277
0.000270194
0.000921897
0.000391678
0.203941
2.78479e-05
5.72969e-06
0.00307677
0.0150155
0.00260474
3.81697e-09
0.276003
5.60784e-05
0.713885
0.233492
3.56735e-07
0.17765
6.67885e-14
0.00237597
0.00697397
0.994577
8.97776e-08
0.000229544
0.000322576
0.000447465
0.994601
2.61108e-18
0.00144621
1.0131e-16
0.000566462
1.15115e-07
3.57684e-06
6.59598e-10
5.71405e-05
3.44812e-09
5.74105e-05
8.70954e-05
1.62493e-05
5.89713e-05
0.000775115
0.0029463
2.73056e-09
0.000375492
0.693174
1.10149e-06
-3.09671e-07
0.000268104
7.78217e-08
1.84771e-14
0.000419893
2.45702e-07
1.82675e-16
4.7457e-06
2.93984e-10
8.72647e-08
0.181711
0.00294603
0.991695
6.76717e-06
3.87536e-06
8.7348e-05
0.00912102
1.77996e-07
1.3269e-08
1.85403e-10
0.998662
0.000530891
0.591988
6.67281e-06
1.80972e-10
1.59452e-10
3.07403e-11
1.80972e-10
4.368e-09
3.46018e-05
0.00204219
6.33036e-11
8.77576e-07
4.42202e-11
0.99999
1.7986e-17
2.61594e-18
0.000178928
0.000736574
7.21631e-08
6.39014e-10
0.00184111
0.00311723
2.52703e-06
2.9407e-11
3.94369e-09
0.981921
0.981865
0.000765849
5.16907e-07
0.000541987
0.000305583
4.23897e-05
3.76094e-05
0.00131499
3.18128e-09
3.75969e-07
0.00204822
1.72742e-12
0.000179411
0.000277303
1.89818e-06
1.05698e-05
1.59009e-09
0.0280205
0.000534805
1.29138e-12
0.00318805
0.00294446
2.22422e-07
2.68408e-09
4.80815e-07
1.25429e-05
1.37682e-05
1.2172e-07
1.10305e-06
0.115156
2.61506e-18
1.17277e-07
0.00178242
2.07124e-13
0.994597
0.00012975
0.994535
0.00053302
9.89928e-09
7.55696e-06
3.67122e-07
0.760854
5.71005e-06
6.16788e-09
0.000727509
3.85645e-13
1.80972e-10
2.05152e-09
0.30944
4.30167e-05
2.8889e-06
2.62496e-17
5.87609e-10
9.27687e-05
6.48879e-10
3.43625e-05
2.24074e-08
2.80168e-13
1.33874e-06
0.000534805
4.37066e-05
1.1131e-07
2.20211e-13
1.95985e-07
0.321788
2.45702e-07
9.68117e-06
8.13208e-06
1.15237e-13
0.00016265
6.76398e-07
1.93755e-06
6.5623e-05
2.71632e-10
0.000886788
0.00626538
3.88441e-09
1.97307e-08
8.78381e-08
0.00653405
4.82889e-05
0.000534805
4.43163e-11
2.04427e-08
0.00123019
3.02154e-06
4.94115e-05
3.89461e-06
2.77722e-11
1.47072e-11
0.000162987
3.91223e-07
6.88144e-09
1.50072e-14
2.63543e-18
2.48746e-06
4.43801e-09
0.00012996
5.84831e-09
6.85278e-07
0.000661636
1.23779e-11
5.92222e-12
0.990544
1.65934e-09
5.71005e-06
7.80825e-06
0.990543
2.02186e-06
8.26835e-05
1.01126e-16
2.81551e-05
3.65403e-05
4.13989e-07
0.969223
3.76677e-07
2.11874e-12
0.00013023
5.1464e-08
4.92583e-05
1.32598e-10
0.0246814
8.36638e-10
0.279838
7.00855e-10
4.15677e-07
0.000592461
8.45374e-17
0.000156773
0.815507
0.994345
2.43562e-10
7.0847e-15
4.70094e-08
6.37879e-10
4.7457e-06
1.6346e-06
0.880541
0.00696319
1.09564e-10
2.21999e-05
0.999996
1.20842e-11
1.13675e-09
4.3666e-09
1.54135e-06
2.32507e-09
2.9614e-05
6.33007e-10
2.35138e-06
0.689689
2.41744e-05
3.77631e-08
3.31557e-07
1.06011e-17
1.21604e-07
1.4895e-07
0.749944
9.39175e-06
3.15675e-10
1
2.62852e-05
9.89928e-09
1.37616e-05
3.86048e-09
7.79769e-08
5.64742e-06
2.7726e-05
1.43759e-10
6.27106e-09
2.52657e-08
1
9.57929e-16
4.91891e-07
1.38394e-09
8.70166e-07
0.00552163
3.99517e-07
0.000164001
0.463652
2.6369e-06
4.17839e-06
2.92087e-12
1
0.992299
3.75731e-09
6.34458e-09
4.60145e-07
0.584957
6.24913e-05
0.00537851
2.38551e-06
1.49432e-06
3.39179e-18
2.16184e-13
3.34952e-08
5.16033e-10
4.03284e-11
2.10818e-07
4.89236e-07
1.00037e-12
0.000368201
3.71995e-10
6.61244e-05
2.67419e-08
1.07215e-10
8.37381e-10
0.99425
0.994203
7.54719e-05
4.36028e-08
1.62075e-10
1.34885e-06
0.0118395
6.64663e-10
6.43796e-08
1.17506e-07
7.701e-09
2.03308e-09
1.12369e-06
3.10517e-12
0.999998
1
3.14272e-12
1.1591e-10
3.45825e-09
0.4417
1
4.47472e-08
6.45416e-05
1.48305e-06
1.19235e-09
0.000498425
6.12846e-11
1.92751e-07
1.93701e-12
0.911638
1.48305e-06
4.42052e-14
4.17123e-10
1.24086e-09
2.00538e-10
1.58728e-06
0.229788
0.000653128
4.18961e-09
7.28068e-13
0.608992
1.05206e-10
8.8863e-18
2.12411e-08
1.21935e-06
1.98501e-06
1.56103e-10
8.35784e-13
2.65187e-08
2.96579e-10
1
2.00588e-11
8.45977e-06
7.41895e-13
2.88911e-06
1.96435e-10
4.13078e-10
3.94241e-13
9.60196e-10
8.14636e-10
1
1.67168e-08
1.07026e-10
3.79892e-15
3.45211e-09
3.85145e-13
0.000505579
9.97238e-13
1.62356e-12
2.80144e-13
3.20946e-06
-4.86881e-09
4.94651e-12
4.6014e-12
1.56191e-06
6.65382e-13
2.14667e-07
1.68509e-08
7.32759e-13
2.09049e-11
1.12173e-10
1.2216e-08
1.84722e-10
2.08412e-06
7.01839e-13
1.68164e-11
1.5038e-06
6.73632e-10
1.64904e-08
1.59033e-06
1.83475e-10
4.04432e-10
0.000156791
2.17056e-13
0.000168027
0.000101025
2.57512e-14
1.33664e-14
1
2.27637e-06
6.61904e-13
0.175129
2.97669e-12
3.33637e-11
0.00311801
3.63428e-09
1.09749e-10
9.96576e-13
5.07209e-10
3.16432e-06
1.01124e-16
1.51071e-12
1.47125e-12
3.22343e-18
0.873161
0.852433
0.994138
1
4.86784e-13
0.994203
1.09014e-10
8.04475e-11
2.44401e-07
2.67944e-12
8.15769e-09
3.03253e-12
0.52814
1.9632e-10
9.44614e-06
5.83705e-06
0.000101202
1.10645e-12
1
2.0137e-17
1.49448e-07
1.54135e-06
1.49826e-11
0.000756069
2.16355e-06
0.000644016
1.89883e-11
0.595824
1
1
6.06597e-06
3.76961e-11
1
2.77094e-12
3.06607e-11
0.882805
3.03357e-07
1.36425e-11
1.34509e-08
0
0.625876
1.46485e-09
1.55811e-10
0.364702
6.08282e-12
7.41899e-13
1
3.2416e-18
1.16409e-09
3.99291e-10
0.00252074
2.00588e-11
4.57287e-10
7.94026e-13
-5.27e-11
2.076e-12
1.89044e-11
0.000117979
3.78881e-11
0.000615467
1.24334e-12
0.999997
2.77987e-12
1.32127e-13
1.04111e-10
0.00172182
0.000655644
0.430825
1
6.53624e-10
1.90355e-09
3.23098e-11
6.02551e-12
1.01631e-10
2.58144e-12
1.75345e-06
3.62373e-12
6.1703e-12
5.32616e-18
0
9.56512e-12
2.13599e-05
5.93566e-14
6.18297e-14
6.49764e-12
2.66287e-12
9.41821e-12
1.61946e-08
1.09533e-05
2.63813e-10
2.37278e-07
0.00177555
8.96184e-11
4.505e-11
-4.79184e-17
7.64594e-13
1.45758e-11
2.55409e-11
6.77495e-10
1.96688e-12
1.19545e-09
3.14505e-08
0.00315802
3.55408e-11
1.03807e-10
5.10086e-13
4.47206e-09
0.0864322
3.91958e-10
8.98345e-15
5.72844e-08
1.53473e-08
1.3064e-11
7.43779e-13
1
6.85136e-11
1
1.2276e-05
4.28381e-06
7.51552e-11
1
6.57109e-14
-4.04214e-14
1.20308e-17
1.25866e-11
1
1.47425e-10
-1.07641e-12
1
0.527786
0.489557
0.413433
2.6053e-12
1.63879e-11
2.64473e-11
1
3.95507e-13
2.56558e-12
0.00458163
6.07266e-12
0.975155
6.99225e-12
3.82494e-10
-2.05867e-13
5.14105e-11
1.33273e-11
0.193678
-7.44995e-14
2.27274e-10
5.81266e-13
4.72048e-10
-1.28779e-13
2.35472e-07
1
0.000745234
4.34474e-11
1
0.000750009
4.32318e-13
0.000163486
4.44345e-12
2.52839e-11
2.18303e-06
1.55131e-11
-2.96159e-13
7.80433e-08
1.39205e-11
-9.80637e-14
0.00782165
3.33926e-09
1.19235e-09
2.35472e-07
0.000117773
6.09839e-12
2.27711e-11
6.60441e-11
2.04062e-10
2.22512e-11
0.851471
0.718557
0.718595
6.52936e-10
4.52941e-09
-5.67729e-12
-3.38449e-12
4.48934e-14
3.18468e-10
1
4.47718e-14
6.27097e-10
8.71063e-13
4.477e-14
0.0189172
0.000172259
1
5.68986e-10
4.61015e-14
0
0.521902
-1.33544e-13
6.91402e-11
3.35477e-12
-1.32164e-30
5.12632e-08
0.000196499
0.000593081
-3.40218e-12
-6.52464e-12
0.00315901
4.113e-11
1.70193e-10
2.05216e-11
1.06088e-10
1
5.81613e-14
2.35251e-14
-7.37837e-13
9.53559e-05
-1.16034e-13
4.1407e-11
2.06629e-12
-9.39085e-13
3.7495e-11
-1.08961e-13
2.35472e-07
3.70013e-11
2.51756e-10
0.00498746
3.67036e-12
-5.18674e-14
1.25866e-11
0.0160797
6.4853e-13
2.69695e-10
4.29288e-11
0.999933
0.999991
1
3.12641e-13
2.73259e-10
3.34256e-12
-1.80421e-12
-1.54176e-13
-5.67492e-12
1
0.783107
-2.70171e-15
2.04774e-12
4.31737e-11
5.96167e-11
7.63897e-08
2.32142e-12
4.99322e-13
4.90804e-14
1.69131e-07
-5.72401e-16
-1.29407e-15
-3.91613e-14
0.00853465
-9.04828e-12
-3.70344e-14
5.56802e-11
2.31703e-12
3.19356e-11
4.504e-11
-8.75423e-12
4.70935e-11
1
2.06144e-11
2.0129e-10
0.0187734
1.30905e-10
4.61003e-14
0.531561
3.08204e-11
-3.51053e-13
-3.50095e-12
4.51092e-14
9.08764e-11
-4.87177e-13
-1.36333e-12
5.15927e-11
4.18511e-12
4.477e-14
-3.88178e-14
2.06929e-07
4.48932e-14
4.19576e-12
1.17531e-12
1
9.11083e-12
4.39099e-11
2.04534e-12
-2.29054e-14
1.27079e-11
2.72097e-12
0.0285314
0.0286603
4.34241e-11
1
-7.70607e-12
8.42611e-12
4.77187e-13
1.07746e-12
9.48159e-13
-7.52247e-12
4.90774e-14
8.48608e-13
6.54399e-11
4.6617e-10
1.41352e-12
6.33931e-11
1.02629e-14
1
1
3.83607e-13
1.43823e-12
1.86911e-13
0.000361957
0.000658853
-1.24599e-12
-1.03239e-12
4.93955e-11
3.84771e-11
-3.17848e-13
1.98771e-11
1.51125e-10
1.65209e-10
3.59306e-13
5.12902e-12
7.05832e-11
4.85064e-12
-2.76921e-14
-3.42409e-14
6.72115e-11
-1.08637e-14
-2.09455e-12
2.0161e-13
3.61338e-13
0.000283336
1.89175e-11
2.40616e-11
7.00411e-13
1
1
5.81556e-11
1.03937e-14
7.90443e-13
5.80594e-14
5.80522e-14
4.9894e-11
1.30354e-12
-9.37926e-12
6.66694e-13
1.29396e-11
4.16297e-13
2.37399e-12
1.6322e-13
-2.05378e-14
1.91216e-14
-9.41892e-15
2.98826e-11
-6.30342e-13
3.35863e-13
-1.58737e-12
-1.99094e-12
-1.6921e-12
3.98452e-12
-1.50356e-14
2.91463e-11
8.65943e-14
5.68664e-16
3.96257e-11
4.81182e-15
4.19088e-17
1.81233e-16
9.45552e-11
5.47498e-11
8.18462e-11
1.78183e-12
0.787603
1.87497e-14
1.8935e-13
5.28906e-17
1.05412e-11
7.09794e-21
1.4591e-14
2.47804e-13
1.01821e-13
2.28448e-13
-2.32419e-12
1.5999e-23
-2.25214e-12
5.98571e-17
3.94764e-18
1.01292e-14
6.29631e-15
4.72472e-12
-1.18462e-20
3.05849e-17
5.28527e-17
1.80912e-16
4.29797e-15
9.00584e-16
6.60932e-13
1.60178e-11
4.07101e-13
1.52504e-14
3.35439e-20
9.55372e-18
5.18979e-16
-5.36085e-15
1.42929e-25
1.42929e-25
1.42929e-25
2.74564e-16
4.2972e-15
1
1
1.58828e-33
1
3.72576e-19
1
1.49282e-11
6.1919e-12
-2.21335e-12
2.45263e-11
4.26719e-11
1.20821e-10
3.85965e-13
1.9499e-12
1.46722e-10
1.29116e-10
1.40141e-19
1.0267e-21
1.018e-13
1.43061e-25
8.34621e-25
7.68312e-15
9.16066e-14
6.35862e-22
1.77384e-21
1.78706e-21
5.11435e-20
7.03119e-17
4.30487e-14
2.85027e-15
2.28529e-13
9.00395e-16
4.55341e-12
1.01269e-14
3.96472e-14
1.87285e-14
0.53591
0.519155
0.999999
0.668202
0.998572
0.137073
0.00311536
0.00367281
3.03002e-06
0.000203343
0.203517
0.999992
1.62943e-11
0.999955
0.336203
0.0875152
0.999966
0.0269846
1
0.999993
0.00016786
1
0.876693
0.0116841
0.999985
1.68465e-08
1.68509e-08
1
1
1
1
1
1
0.468651
0.96551
1
0.917558
0.969889
0.969889
0.999993
0.00133695
0.0395048
0.792214
0.999964
0.865033
1
1
1
0.454802
7.24348e-12
0.952716
1
0.999994
0.862943
1
1
1
1
1
1
0.999999
0.999986
0.991139
0.000815134
0.962354
5.50033e-12
1
0.969889
0.293983
0.969861
1
0.792301
0.00153847
0.920124
1
0.888867
0.969889
1
0.831191
0.918305
0.862941
2.03018e-11
0.999991
0.00101455
1.6853e-08
0.362132
2.64592e-05
0.563763
0.999987
0.862938
0.998506
0.0184869
0.00513206
1
1
1
0.000586979
4.40065e-12
1
2.1608e-10
0.000118223
1
0.000118167
7.74161e-08
0.422532
0.0387224
0.301685
0.952397
0.95275
1
0.00950768
1
1
0.000211366
)
;

boundaryField
{
    patch0
    {
        type            zeroGradient;
    }
}


// ************************************************************************* //
