/*--------------------------------*- C++ -*----------------------------------*\
  =========                 |
  \\      /  F ield         | OpenFOAM: The Open Source CFD Toolbox
   \\    /   O peration     | Website:  https://openfoam.org
    \\  /    A nd           | Version:  8
     \\/     M anipulation  |
\*---------------------------------------------------------------------------*/
FoamFile
{
    version     2.0;
    format      ascii;
    class       volScalarField;
    location    "0.6";
    object      epsilon;
}
// * * * * * * * * * * * * * * * * * * * * * * * * * * * * * * * * * * * * * //

dimensions      [0 2 -3 0 0 0 0];

internalField   nonuniform List<scalar> 
1924
(
0.0315542
0.0348898
0.0541297
0.0552041
0.0378925
0.0570844
0.0572124
0.0588597
0.0587512
0.0509755
0.0600967
0.0599985
0.0301966
0.0615363
0.0613076
0.0610262
0.0353561
0.0615147
0.0273072
0.0623036
0.0192945
0.0651221
0.0437322
0.0621869
0.0659184
0.0679137
0.0674565
0.0414671
0.040287
0.0398541
0.0444127
0.0673091
0.02883
0.0374594
0.0444052
0.0476026
0.0672792
0.0426928
0.0372819
0.042255
0.0676409
0.0229004
0.0682144
0.0397272
0.0444292
0.0408154
0.0269457
0.0504775
0.011041
0.0132402
0.0227389
0.0264075
0.0639493
0.0178495
0.0431358
0.0510367
0.0258385
0.0460659
0.040469
0.0611045
0.038185
0.0608119
0.0330636
0.0359524
0.0196657
0.0516317
0.0601747
0.0508712
0.0416601
0.0229322
0.0181482
0.0606083
0.0358515
0.0426067
0.042633
0.0406263
0.0528341
0.0450529
0.0503524
0.0311843
0.0560748
0.0668595
0.0445048
0.0189805
0.0297659
0.0539826
0.0433884
0.0614344
0.0109816
0.0170427
0.0610707
0.0655699
0.0430553
0.0472045
0.0194757
0.0192847
0.0538271
0.0571893
0.0627927
0.0331385
0.0529368
0.0205996
0.0635815
0.0647739
0.0484831
0.049017
0.0517558
0.0494421
0.0597451
0.0464647
0.0547046
0.0458316
0.0423368
0.0431344
0.0502502
0.0152874
0.054186
0.0608115
0.0584784
0.0521004
0.0259736
0.0343466
0.0153048
0.0133061
0.0603207
0.052516
0.0442334
0.0448958
0.0468529
0.0628193
0.0544361
0.0530995
0.241698
0.0446665
0.0245626
0.050967
0.0471067
0.0473995
0.0623718
0.0439464
0.0508522
0.0605536
0.148491
0.297789
0.0572028
0.0306147
0.0509642
0.0277091
0.0582524
0.057847
0.0421239
0.0685559
0.0410377
0.0568842
0.0576699
0.053654
0.0342955
0.0489443
0.0558517
0.333369
0.0425303
0.0401256
0.0576092
0.0361664
0.0383564
0.0521445
0.0568805
0.0437655
0.0517417
0.0509945
0.032599
0.0595885
0.0483969
0.0634443
0.0520134
0.0534802
0.040703
0.0612313
0.0466751
0.0600562
0.0593578
0.0608874
0.0473533
0.0576918
0.0105942
0.0305214
0.0448263
0.0624499
0.0533615
0.045116
0.0517265
0.0596273
0.0557315
0.0601924
0.0605917
0.0727405
0.0645787
0.0549098
0.0562294
0.0555447
0.115009
0.0354669
0.0554156
0.0610229
0.0360364
0.0604126
0.0617054
0.0409386
0.0321487
0.185511
0.0386459
0.0521209
0.0621462
0.0612632
0.0632527
0.0476664
0.0574037
0.0531983
0.0616403
0.0436057
0.054257
0.0450691
0.0569753
0.0619748
0.060953
0.0651673
0.0571392
0.0515717
0.0629687
0.0574729
0.225287
0.0614348
0.0575207
0.115733
0.0656558
0.335186
0.0620405
0.0628393
0.0592175
0.0775161
0.0604695
0.0609277
0.062089
0.0446775
0.173776
0.0253109
0.062275
0.053998
0.0469432
0.0494414
0.0294957
0.0484177
0.0635063
0.0555132
0.053092
0.0618717
0.0672831
0.0625749
0.0555991
0.0627321
0.0579175
0.0605816
0.0620529
0.0484147
0.0675787
0.0402557
0.0207251
0.0463391
0.0439836
0.0851562
0.0574947
0.0417805
0.0362212
0.0648439
0.060502
0.0559895
0.0621948
0.0660515
0.056987
0.0582325
0.0876894
0.116622
0.0617523
0.0642455
0.0233909
0.0446987
0.057122
0.0581352
0.0634328
0.0621254
0.061852
0.0368908
0.0659019
0.0619075
0.0132918
0.0380274
0.0618155
0.0440162
0.0441162
0.0618803
0.104972
0.0591443
0.0616905
0.0571717
0.0630042
0.06646
0.0239804
0.0615401
0.0636262
0.04743
0.0304837
0.0568803
0.0646352
0.0634913
0.0548042
0.0283563
0.0589719
0.0632202
0.0627994
0.0613964
0.0379811
0.0588663
0.0602997
0.0399674
0.0672126
0.0533099
0.0636055
0.06564
0.0547147
0.0584886
0.0596977
0.0595388
0.0628937
0.0628137
0.0409212
0.066077
0.0600791
0.063301
0.0647126
0.0616366
0.0516024
0.0418324
0.0657795
0.0486749
0.0617401
0.0603128
0.223243
0.0597087
0.0559557
0.0671476
0.0684543
0.119274
0.137832
0.0615038
0.0298747
0.0482326
0.0111698
0.062895
0.0639577
0.0206867
0.0653782
0.061815
0.0615093
0.0595727
0.068618
0.0620391
0.0651573
0.0589229
0.0649742
0.0639809
0.0605361
0.0621942
0.0660861
0.0605151
0.0648145
0.0333778
0.061699
0.0615231
0.0676185
0.0596221
0.0598858
0.0459644
0.0644796
0.0637159
0.0601415
0.0600274
0.0391983
0.0590842
0.0654201
0.0630158
0.162637
0.063051
0.0654963
0.0590222
0.0641232
0.209981
0.0672325
0.0671693
0.0585153
0.0604435
0.0340295
0.0419529
0.0484833
0.0464776
0.0983854
0.0589781
0.0576492
0.0589645
0.0651343
0.0677619
0.0651853
0.0622856
0.0624758
0.0631455
0.0644827
0.0571512
0.054542
0.0612841
0.0556638
0.0551917
0.0612893
0.060456
0.056687
0.0351094
0.0687205
0.060464
0.0546865
0.0335356
0.0650567
0.0613294
0.0583788
0.053287
0.0603718
0.0603538
0.064383
0.0620649
0.0603525
0.0166249
0.0638292
0.0686864
0.061392
0.0645487
0.0642941
0.0316159
0.0589943
0.206656
0.0638465
0.0396931
0.0661011
0.0583395
0.0612532
0.0643207
0.0649211
0.0596475
0.0653342
0.066409
0.0583005
0.0614267
0.0596643
0.0595213
0.0501327
0.0670331
0.0317485
0.0587411
0.0521945
0.0582391
0.0584404
0.064587
0.0637109
0.048257
0.0678454
0.062102
0.034946
0.0576367
0.0606208
0.0481411
0.03258
0.0618543
0.0588699
0.0600416
0.0629493
0.0640096
0.0577595
0.0583698
0.0663925
0.0681551
0.0609274
0.0602513
0.0590134
0.0561806
0.0200038
0.0595059
0.061264
0.0561326
0.0599665
0.0553715
0.0592052
0.0577528
0.0617159
0.0393574
0.060012
0.0611801
0.0616773
0.0684862
0.0369902
0.0574211
0.0609096
0.0651802
0.0640375
0.0585386
0.0437546
0.0544372
0.0577098
0.0653165
0.0580336
0.0580686
0.0681324
0.0667573
0.0636041
0.0597543
0.0592959
0.0608709
0.0516668
0.0580886
0.065309
0.0664497
0.0353767
0.039716
0.0659289
0.0633573
0.0581816
0.0615799
0.0631614
0.052746
0.0510567
0.0582063
0.0640327
0.0618918
0.036551
0.0680066
0.0659574
0.0397164
0.0323792
0.0413556
0.055793
0.0584578
0.0322113
0.0334282
0.0585329
0.0596976
0.0589294
0.05732
0.0601913
0.0606794
0.0610056
0.0543422
0.0441684
0.0239884
0.0355462
0.0313106
0.0678989
0.0586637
0.0474076
0.0573849
0.0628306
0.0564177
0.050075
0.0563856
0.0331319
0.0651389
0.0551469
0.0576585
0.0620452
0.0576763
0.0361653
0.0581259
0.0482742
0.0428791
0.0581392
0.056812
0.0674054
0.0591668
0.0631435
0.0578975
0.0212855
0.0373849
0.0593196
0.0549102
0.0526274
0.0406728
0.0658623
0.059909
0.0676087
0.0237161
0.029853
0.0579494
0.058262
0.0531746
0.0583487
0.0575721
0.0215166
0.059344
0.0631749
0.0278136
0.0623904
0.0613287
0.0664514
0.0457696
0.0574706
0.0529614
0.0661586
0.0607679
0.0509962
0.0561032
0.0667765
0.0587302
0.0655294
0.0526183
0.0228678
0.03487
0.0559046
0.0514936
0.057543
0.0671166
0.0628727
0.0333896
0.0440141
0.059092
0.0655744
0.0542297
0.0596417
0.0580872
0.0530237
0.0566798
0.0614032
0.0225577
0.0586838
0.0328525
0.0573605
0.0554238
0.0573146
0.0575491
0.0642108
0.0617073
0.0576168
0.0604545
0.0666113
0.0598779
0.0572352
0.0628821
0.0576038
0.0577504
0.0490901
0.0649873
0.0468034
0.058097
0.0564229
0.0434254
0.0624915
0.0557845
0.056976
0.0378579
0.0339926
0.0529987
0.0582792
0.0296306
0.0655339
0.059532
0.0586399
0.063218
0.0655721
0.0475706
0.0228799
0.0572252
0.0603702
0.0522678
0.0623384
0.0600444
0.0303181
0.0515273
0.0571348
0.057152
0.0587176
0.0584546
0.0652327
0.0626601
0.0584117
0.0342123
0.0555441
0.0419506
0.0398124
0.0615913
0.0576391
0.0579554
0.0568429
0.0586658
0.0533269
0.0375951
0.0647253
0.0652881
0.0488477
0.0544426
0.0570023
0.043506
0.0248015
0.0568879
0.0575318
0.0586542
0.0552194
0.0598338
0.0578521
0.0355426
0.0577709
0.0352381
0.062014
0.0650108
0.0580868
0.0555478
0.0589198
0.0185264
0.0351261
0.0593785
0.0455222
0.0480533
0.0599378
0.0406881
0.0573493
0.0242845
0.0539118
0.0528735
0.0582792
0.0558707
0.0342844
0.0646772
0.0585657
0.0621847
0.0583857
0.0570113
0.0590255
0.0545211
0.028674
0.0584485
0.0472501
0.0690971
0.0592118
0.110258
0.0614011
0.0504073
0.0588959
0.052419
0.0638035
0.0580462
0.0617843
0.0274572
0.031106
0.0649741
0.0266338
0.0254539
0.0344022
0.059317
0.0273355
0.0583577
0.0595287
0.049444
0.0633644
0.0539396
0.0581205
0.0628733
0.042835
0.0564442
0.0597676
0.0565722
0.0370413
0.0581236
0.0465136
0.0545073
0.0602078
0.0585989
0.0464138
0.057732
0.0533511
0.0394824
0.0613895
0.0491593
0.0623735
0.0273643
0.060141
0.0566715
0.0563234
0.0388284
0.0550668
0.0530725
0.0560719
0.0583363
0.0631105
0.0483412
0.0544177
0.0157372
0.056876
0.0543642
0.0296542
0.0568761
0.0609052
0.0265784
0.0414031
0.0599347
0.0249626
0.0597163
0.0585237
0.0616825
0.0281684
0.0523553
0.0384589
0.0953448
0.0552081
0.0514276
0.058944
0.0359618
0.0606914
0.0596564
0.0506804
0.0637477
0.0584369
0.0406616
0.0580854
0.0520602
0.0621216
0.058349
0.0584193
0.0530334
0.0600594
0.0429818
0.0561267
0.0559716
0.0620471
0.0561299
0.0368288
0.0586375
0.049363
0.0901361
0.0592939
0.093385
0.0561621
0.0576905
0.0124531
0.0511699
0.0564562
0.0613234
0.0594747
0.0532174
0.0612502
0.0580323
0.0469561
0.0388659
0.0600182
0.0581039
0.0501268
0.057388
0.0292468
0.029028
0.0583334
0.0586771
0.05834
0.0253636
0.0498774
0.0585606
0.0339956
0.0576643
0.0498596
0.0542591
0.0486891
0.0541251
0.049496
0.0610573
0.0588313
0.0243817
0.0407682
0.0519514
0.0280609
0.0571654
0.0267554
0.054929
0.0592363
0.0251956
0.0580986
0.0595298
0.0585026
0.0606262
0.0577139
0.0579237
0.0598098
0.043972
0.0642938
0.0582508
0.0533573
0.0532477
0.0513236
0.0598814
0.0495777
0.0600857
0.0525158
0.0254543
0.0559253
0.0266213
0.055546
0.0592054
0.0555622
0.0406865
0.0558733
0.0559664
0.0554793
0.0241522
0.0512001
0.157229
0.0290048
0.0581033
0.0448439
0.0555495
0.0571325
0.030452
0.0266142
0.0600715
0.0595394
0.0367083
0.0487306
0.0533255
0.0422036
0.0633133
0.0609931
0.0567797
0.0581082
0.0597056
0.0567237
0.0432954
0.0585607
0.0471511
0.0581393
0.0474865
0.0573574
0.0577343
0.0321586
0.110591
0.0483457
0.0159184
0.0940407
0.0582968
0.0578049
0.0585066
0.0493424
0.0600788
0.0387971
0.0565722
0.228926
0.0502407
0.0572578
0.124534
0.0488688
0.0614897
0.0514682
0.0589176
0.0376641
0.0442831
0.0517021
0.0619944
0.0339698
0.0581583
0.0580786
0.058176
0.0553244
0.0385873
0.0337586
0.0530576
0.0275962
0.0552658
0.0595669
0.0244556
0.0580977
0.056412
0.0567144
0.0487262
0.0599558
0.0568197
0.040008
0.0543209
0.0552929
0.0564713
0.0575855
0.028515
0.0237647
0.0426382
0.0633322
0.0578404
0.0429739
0.0555392
0.0452526
0.0292064
0.0396679
0.0572013
0.0575452
0.0515906
0.0556596
0.0439138
0.0387785
0.0584041
0.0486743
0.0513839
0.0599093
0.0606852
0.0500719
0.0309984
0.055959
0.0473908
0.0594455
0.0584488
0.0500035
0.0476686
0.0584599
0.0577925
0.0507973
0.0564169
0.0525865
0.0573808
0.0523048
0.0592392
0.0309116
0.0349996
0.0580898
0.0524786
0.056464
0.0469975
0.0390427
0.0310751
0.038466
0.0474539
0.0565039
0.0298358
0.0329508
0.0539323
0.0616712
0.0376809
0.0572359
0.0423679
0.0598439
0.0615859
0.0560562
0.0590462
0.0558832
0.0438609
0.0566222
0.0564608
0.057872
0.0551853
0.0553269
0.0505279
0.0563166
0.054633
0.0627066
0.0559083
0.0558266
0.0559382
0.0342731
0.0574511
0.0396435
0.0364424
0.0236633
0.0506918
0.0324108
0.0590984
0.0562554
0.0430352
0.0381011
0.0596021
0.0416865
0.0557705
0.0405081
0.0576982
0.0565017
0.100623
0.0572526
0.0449115
0.0564564
0.0503227
0.0578483
0.0482509
0.01624
0.0469124
0.0346199
0.0357711
0.0582237
0.0593136
0.0577872
0.0506274
0.0562978
0.0505312
0.0500716
0.0565735
0.0577624
0.0591123
0.0547145
0.0560036
0.0462258
0.0335289
0.0523734
0.0366387
0.0522927
0.0567749
0.0148126
0.0362101
0.057126
0.0551995
0.056625
0.0491292
0.0543538
0.169914
0.188877
0.062416
0.0487329
0.0562859
0.0490395
0.0360897
0.0566785
0.0573369
0.0419467
0.0578972
0.0488296
0.046358
0.0504764
0.0564196
0.0415926
0.048829
0.0335095
0.0564425
0.0538019
0.0592671
0.0461308
0.0359745
0.0565617
0.046225
0.0429356
0.0363456
0.0491635
0.057199
0.188688
0.0332943
0.0378462
0.0536088
0.0561142
0.0566592
0.0512252
0.0496847
0.0250899
0.0560463
0.0423467
0.0590839
0.0554309
0.0574995
0.051804
0.0495696
0.053532
0.0393155
0.0573244
0.0575117
0.18594
0.0594347
0.0564526
0.0362777
0.0412173
0.0574507
0.0360063
0.052776
0.0523446
0.0383636
0.0356197
0.0439127
0.0617176
0.0551155
0.0561385
0.0237643
0.0466772
0.0541604
0.0534304
0.0354758
0.0580478
0.0375237
0.0566212
0.0346359
0.111004
0.0542521
0.0569952
0.0568419
0.0624676
0.0309775
0.0567975
0.0207012
0.0468722
0.0540623
0.0300896
0.0566445
0.0328454
0.0407324
0.0530194
0.058223
0.0559479
0.0396882
0.0534116
0.0371611
0.0565085
0.0334864
0.0341134
0.0531408
0.0410838
0.0550043
0.0484284
0.0574934
0.0490993
0.0345437
0.0546479
0.0536689
0.0451533
0.0370859
0.034719
0.0569035
0.0562533
0.0439855
0.0392624
0.0581772
0.0487262
0.0380244
0.0148144
0.0650926
0.0449291
0.0542804
0.0571418
0.047928
0.0529475
0.052002
0.0536159
0.0411507
0.0528556
0.0380648
0.0546893
0.0520885
0.0532799
0.0391735
0.0364912
0.0575693
0.0458899
0.0555759
0.0316731
0.145898
0.0568595
0.030561
0.0518791
0.034273
0.0501361
0.0531236
0.0417252
0.0284343
0.0686825
0.0556491
0.0510169
0.0387114
0.189227
0.0299072
0.0538111
0.0453294
0.0348094
0.0422045
0.0419532
0.0483737
0.0563892
0.0412648
0.0435251
0.0344349
0.035454
0.0559228
0.0571555
0.0561727
0.036606
0.0459681
0.0160856
0.0494615
0.0477977
0.115037
0.0507794
0.0674048
0.0561737
0.0547019
0.0530184
0.0556513
0.0471945
0.0445817
0.0498204
0.0298253
0.0527903
0.0418125
0.0484213
0.0538104
0.0560779
0.0467932
0.086358
0.0563827
0.0537246
0.0284056
0.0562297
0.0460859
0.0339483
0.0490628
0.0878004
0.0411892
0.0487738
0.0511347
0.0906923
0.014478
0.0533171
0.043736
0.0487525
0.0366476
0.0467912
0.0526916
0.05617
0.046993
0.0451031
0.0456161
0.0458636
0.0548915
0.0850942
0.0463858
0.0441222
0.0340309
0.0489645
0.0563363
0.0355179
0.0550317
0.0558428
0.0466483
0.0405037
0.0481923
0.0563485
0.087876
0.0988087
0.0369767
0.0390251
0.0393316
0.183237
0.0525663
0.0446248
0.0844373
0.048503
0.0468279
0.0473884
0.051127
0.0653443
0.105118
0.0380056
0.0486588
0.0697302
0.030464
0.0323723
0.0413224
0.0314552
0.0376318
0.0391764
0.0547793
0.0540652
0.0550161
0.0441793
0.0533333
0.052462
0.0633604
0.0539922
0.0726744
0.0833678
0.0560841
0.047389
0.0265455
0.111715
0.0552225
0.0351943
0.054525
0.177327
0.0403406
0.169388
0.0485803
0.121623
0.0316434
0.0226703
0.134317
0.0533726
0.06515
0.0437429
0.0526103
0.044647
0.10116
0.0371411
0.0931812
0.0400396
0.0407561
0.0977066
0.0461206
0.0168444
0.0362434
0.0377301
0.099271
0.117396
0.104686
0.0549874
0.0453522
0.0481069
0.0547789
0.0385389
0.0522517
0.0391043
0.0482274
0.0606313
0.0520807
0.171182
0.0389241
0.0203682
0.0433165
0.0393379
0.0541516
0.0464499
0.0515451
0.203192
0.0254878
0.110658
0.0516018
0.0469944
0.0519991
0.0461796
0.0429158
0.0388196
0.0364199
0.0478214
0.122288
0.0388057
0.047899
0.0414761
0.0787983
0.0345903
0.0355269
0.038928
0.0467884
0.0478853
0.161964
0.0528629
0.0530238
0.151579
0.0425404
0.0535896
0.0659469
0.0368636
0.0425132
0.0520907
0.114916
0.037374
0.0533649
0.0528062
0.144588
0.0512317
0.0456025
0.0371954
0.0475681
0.0727073
0.0526896
0.0332808
0.0531775
0.0542149
0.0512026
0.0372681
0.0267865
0.052662
0.0218034
0.0541451
0.0411407
0.0421608
0.0933875
0.0816652
0.07854
0.126675
0.0509578
0.060918
0.0498419
0.0356507
0.0215556
0.128668
0.2219
0.0131636
0.0476223
0.0430038
0.0475075
0.0259686
0.037495
0.0380821
0.145266
0.0418718
0.0410333
0.0470029
0.050904
0.0348935
0.0498638
0.0506545
0.0423692
0.0336951
0.117732
0.0472373
0.0507452
0.0328026
0.0506958
0.019879
0.353425
0.0382238
0.041211
0.354717
0.0413925
0.307619
0.046635
0.0464306
0.228267
0.0415156
0.0774327
0.189265
0.0457881
0.0317986
0.149961
0.189377
0.202026
0.0505199
0.0614343
0.0454832
0.0454901
0.0450176
0.0477802
0.0366879
0.0389007
0.081728
0.103029
0.215341
0.048805
0.034845
0.0411262
0.0831568
0.0477305
0.0532894
0.0822287
0.047902
0.0406865
0.0828511
0.149353
0.0458058
0.0182012
0.225458
0.0829975
0.0409986
0.238972
0.0305638
0.0437806
0.0397834
0.0359298
0.0477646
0.337065
0.317307
0.0342178
0.0405523
0.300934
0.0500402
0.1192
0.0435396
0.0445288
0.079384
0.151577
0.154402
0.0760824
0.0436525
0.0315511
0.0504253
0.0390828
0.0400094
0.0501033
0.0293349
0.0462195
0.0511855
0.0446557
0.297876
0.0474928
0.0305353
0.0485672
0.139349
0.0409705
0.232403
0.0512725
0.0385828
0.0533937
0.0367612
0.036538
0.044604
0.0381642
0.0323516
0.15177
0.0328655
0.0630078
0.135463
0.0660155
0.0374912
0.0473825
0.0442349
0.0433163
0.0414805
0.0316054
0.0819791
0.0460444
0.114293
0.122181
0.0324339
0.304316
0.0340487
0.0656376
0.0405894
0.0455617
0.0434381
0.043481
0.0333542
0.0369358
0.0158965
0.0476915
0.236547
0.304137
0.0407839
0.158813
0.255329
0.0437621
0.0307125
0.0315789
0.158381
0.0401394
0.149664
0.0745842
0.0471777
0.0460143
0.15921
0.0651426
0.043182
0.159369
0.0497593
0.0303967
0.0449943
0.035632
0.0355452
0.0350106
0.0656053
0.0414845
0.043647
0.278587
0.285986
0.043689
0.0149691
0.0335412
0.0398269
0.0339062
0.0388183
0.0294266
0.032249
0.156826
0.0344763
0.0413616
0.0400656
0.0392526
0.0363893
0.0277258
0.0406282
0.0458148
0.02851
0.0433298
0.0288589
0.041983
0.05186
0.0710895
0.147094
0.0380309
0.0350483
0.069906
0.0398784
0.119188
0.237773
0.0275035
0.0314048
0.0365128
0.0391769
0.117954
0.115196
0.0430294
0.0639362
0.0717626
0.067898
0.0256394
0.0450305
0.0319289
0.0345318
0.0365728
0.0288411
0.0331501
0.0407887
0.0246719
0.0310988
0.0797009
0.152552
0.0375904
0.035643
0.0329058
0.031504
0.0389142
0.0264698
0.035856
0.0647914
0.110163
0.0337092
0.0655244
0.0411558
0.133852
0.0255156
0.137682
0.0731944
0.144395
0.0309213
0.119292
0.0341984
0.0617579
0.0303702
0.0338195
0.127999
0.0602835
0.0260164
0.113524
0.107213
0.218191
0.0325914
0.270581
0.0297623
0.11926
0.0202387
0.0307474
0.0223167
0.101863
0.133146
0.0757163
0.0695957
0.0721998
0.0580185
0.140238
0.106269
0.0228192
0.0268767
0.0270146
0.0363346
0.0882395
0.0853396
0.0534936
0.0208663
0.0240336
0.0210089
0.0334836
0.0315112
0.0270634
0.0302668
0.0641409
0.0473993
0.0262564
0.120157
0.0397702
0.045253
0.032209
0.0173705
0.0203318
0.0240293
0.0138743
0.0180791
0.0134049
0.0223367
0.0389627
0.179803
0.087163
0.1421
0.0983546
0.201677
0.229318
0.0739971
0.153289
0.235597
0.117412
0.0528862
0.0756361
0.145021
0.0591129
0.0456268
0.0956276
0.0614863
0.03141
0.0386883
0.0510549
0.0424375
0.088501
0.122686
0.0589371
0.116199
0.0169657
0.0485848
0.0231456
0.0287623
0.0259043
0.143146
0.285159
0.0378322
0.0234525
0.0318691
0.276062
0.0422533
0.0609026
0.0165427
0.041159
0.1412
0.0386442
0.0502694
0.0351704
0.113733
0.27587
0.116814
0.0613398
0.0111588
0.0392361
0.061577
0.133772
0.0140531
0.054589
0.0391081
0.0981323
0.0971223
0.109176
0.0699759
0.131852
0.0655287
0.0908887
0.0788872
0.0363909
0.083469
0.032314
0.0449941
0.0242584
0.0353401
0.0863376
0.0543257
0.0604973
0.0493012
0.0805001
0.0898528
0.0350477
0.0378829
0.112643
0.0206552
0.0499717
0.0144256
0.0110812
0.0361171
0.0499974
0.0551728
0.0376009
0.0557757
0.0470395
0.0378196
0.0409886
0.0411892
0.0395116
0.0348924
0.0558885
0.0101033
0.0515287
0.0629419
0.0290424
0.0659971
0.0094203
0.0136315
0.0307545
0.0553001
0.0101141
0.0161516
0.0153549
0.0206357
0.0128827
0.0123291
0.0104348
0.0298794
0.0587727
0.0114547
0.0572997
0.10243
0.0127095
0.0614922
0.0111794
0.0474287
0.0621479
0.0190823
0.0578809
0.0621823
0.0108386
0.0095054
0.0502641
0.0598496
0.0586228
0.0111108
0.0598776
0.0588982
0.0332356
0.0588991
0.0604472
0.0184701
0.0599241
0.0194984
0.0138274
0.0131876
0.0747022
0.0584736
0.039438
0.077243
0.06174
)
;

boundaryField
{
    patch0
    {
        type            epsilonWallFunction;
        value           nonuniform List<scalar> 
4010
(
0.0315542
0.0315542
0.0348898
0.0348898
0.0541297
0.0541297
0.0552041
0.0552041
0.0378925
0.0378925
0.0570844
0.0570844
0.0572124
0.0572124
0.0588597
0.0588597
0.0587512
0.0587512
0.0509755
0.0509755
0.0600967
0.0600967
0.0599985
0.0599985
0.0301966
0.0301966
0.0615363
0.0615363
0.0613076
0.0613076
0.0610262
0.0610262
0.0353561
0.0353561
0.0615147
0.0615147
0.0273072
0.0273072
0.0623036
0.0623036
0.0192945
0.0192945
0.0651221
0.0651221
0.0437322
0.0437322
0.0621869
0.0621869
0.0659184
0.0659184
0.0679137
0.0679137
0.0674565
0.0674565
0.0414671
0.0414671
0.040287
0.040287
0.0398541
0.0398541
0.0444127
0.0444127
0.0673091
0.0673091
0.02883
0.02883
0.0374594
0.0374594
0.0444052
0.0444052
0.0476026
0.0476026
0.0672792
0.0672792
0.0426928
0.0426928
0.0372819
0.0372819
0.042255
0.042255
0.0676409
0.0676409
0.0229004
0.0229004
0.0682144
0.0682144
0.0397272
0.0397272
0.0444292
0.0444292
0.0408154
0.0408154
0.0269457
0.0269457
0.0504775
0.0504775
0.011041
0.011041
0.0132402
0.0132402
0.0227389
0.0227389
0.0264075
0.0264075
0.0639493
0.0639493
0.0178495
0.0178495
0.0431358
0.0431358
0.0510367
0.0510367
0.0258385
0.0258385
0.0460659
0.0460659
0.040469
0.040469
0.0611045
0.0611045
0.038185
0.038185
0.0608119
0.0608119
0.0330636
0.0330636
0.0359524
0.0359524
0.0196657
0.0196657
0.0516317
0.0516317
0.0601747
0.0601747
0.0508712
0.0508712
0.0416601
0.0416601
0.0229322
0.0229322
0.0181482
0.0181482
0.0606083
0.0606083
0.0358515
0.0358515
0.0426067
0.0426067
0.042633
0.042633
0.0406263
0.0406263
0.0528341
0.0528341
0.0450529
0.0450529
0.0503524
0.0503524
0.0311843
0.0311843
0.0560748
0.0560748
0.0668595
0.0668595
0.0445048
0.0445048
0.0189805
0.0189805
0.0297659
0.0297659
0.0539826
0.0539826
0.0433884
0.0433884
0.0614344
0.0614344
0.0109816
0.0109816
0.0170427
0.0170427
0.0610707
0.0610707
0.0655699
0.0655699
0.0430553
0.0430553
0.0472045
0.0472045
0.0194757
0.0194757
0.0192847
0.0192847
0.0538271
0.0538271
0.0571893
0.0571893
0.0627927
0.0627927
0.0331385
0.0331385
0.0529368
0.0529368
0.0205996
0.0205996
0.0635815
0.0635815
0.0647739
0.0647739
0.0484831
0.0484831
0.049017
0.049017
0.0517558
0.0517558
0.0494421
0.0494421
0.0597451
0.0597451
0.0464647
0.0464647
0.0547046
0.0547046
0.0458316
0.0458316
0.0423368
0.0423368
0.0431344
0.0431344
0.0502502
0.0502502
0.0152874
0.0152874
0.054186
0.054186
0.0608115
0.0608115
0.0584784
0.0584784
0.0521004
0.0521004
0.0259736
0.0259736
0.0343466
0.0343466
0.0153048
0.0153048
0.0133061
0.0133061
0.0603207
0.0603207
0.052516
0.052516
0.0442334
0.0442334
0.0448958
0.0448958
0.0468529
0.0468529
0.0628193
0.0628193
0.0544361
0.0544361
0.0530995
0.0530995
0.241698
0.241698
0.0446665
0.0446665
0.0245626
0.0245626
0.050967
0.050967
0.0471067
0.0471067
0.0473995
0.0473995
0.0623718
0.0623718
0.0439464
0.0439464
0.0508522
0.0508522
0.0605536
0.0605536
0.148491
0.148491
0.148491
0.297789
0.297789
0.297789
0.0572028
0.0572028
0.0306147
0.0306147
0.0509642
0.0509642
0.0277091
0.0277091
0.0582524
0.0582524
0.057847
0.057847
0.0421239
0.0421239
0.0685559
0.0685559
0.0685559
0.0410377
0.0410377
0.0568842
0.0568842
0.0576699
0.0576699
0.053654
0.053654
0.0342955
0.0342955
0.0489443
0.0489443
0.0558517
0.0558517
0.333369
0.333369
0.0425303
0.0425303
0.0401256
0.0401256
0.0576092
0.0576092
0.0361664
0.0361664
0.0383564
0.0383564
0.0521445
0.0521445
0.0568805
0.0568805
0.0437655
0.0437655
0.0517417
0.0517417
0.0509945
0.0509945
0.032599
0.032599
0.0595885
0.0595885
0.0483969
0.0483969
0.0634443
0.0634443
0.0520134
0.0520134
0.0534802
0.0534802
0.040703
0.040703
0.0612313
0.0612313
0.0466751
0.0466751
0.0600562
0.0600562
0.0593578
0.0593578
0.0608874
0.0608874
0.0473533
0.0473533
0.0576918
0.0576918
0.0105942
0.0105942
0.0305214
0.0305214
0.0448263
0.0448263
0.0624499
0.0624499
0.0533615
0.0533615
0.045116
0.045116
0.0517265
0.0517265
0.0596273
0.0596273
0.0557315
0.0557315
0.0601924
0.0601924
0.0605917
0.0605917
0.0727405
0.0727405
0.0727405
0.0645787
0.0645787
0.0549098
0.0549098
0.0562294
0.0562294
0.0555447
0.0555447
0.115009
0.115009
0.0354669
0.0354669
0.0554156
0.0554156
0.0610229
0.0610229
0.0360364
0.0360364
0.0604126
0.0604126
0.0617054
0.0617054
0.0409386
0.0409386
0.0321487
0.0321487
0.185511
0.185511
0.185511
0.0386459
0.0386459
0.0521209
0.0521209
0.0621462
0.0621462
0.0612632
0.0612632
0.0632527
0.0632527
0.0476664
0.0476664
0.0574037
0.0574037
0.0531983
0.0531983
0.0616403
0.0616403
0.0436057
0.0436057
0.054257
0.054257
0.0450691
0.0450691
0.0569753
0.0569753
0.0619748
0.0619748
0.060953
0.060953
0.0651673
0.0651673
0.0571392
0.0571392
0.0515717
0.0515717
0.0629687
0.0629687
0.0574729
0.0574729
0.225287
0.225287
0.0614348
0.0614348
0.0575207
0.0575207
0.115733
0.115733
0.0656558
0.0656558
0.335186
0.335186
0.335186
0.0620405
0.0620405
0.0628393
0.0628393
0.0592175
0.0592175
0.0775161
0.0775161
0.0775161
0.0604695
0.0604695
0.0609277
0.0609277
0.062089
0.062089
0.0446775
0.0446775
0.173776
0.173776
0.0253109
0.0253109
0.062275
0.062275
0.053998
0.053998
0.0469432
0.0469432
0.0494414
0.0494414
0.0294957
0.0294957
0.0484177
0.0484177
0.0635063
0.0635063
0.0555132
0.0555132
0.053092
0.053092
0.0618717
0.0618717
0.0672831
0.0672831
0.0625749
0.0625749
0.0555991
0.0555991
0.0627321
0.0627321
0.0579175
0.0579175
0.0605816
0.0605816
0.0620529
0.0620529
0.0484147
0.0484147
0.0675787
0.0675787
0.0402557
0.0402557
0.0207251
0.0207251
0.0463391
0.0463391
0.0439836
0.0439836
0.0851562
0.0851562
0.0574947
0.0574947
0.0417805
0.0417805
0.0362212
0.0362212
0.0648439
0.0648439
0.060502
0.060502
0.0559895
0.0559895
0.0621948
0.0621948
0.0660515
0.0660515
0.056987
0.056987
0.0582325
0.0582325
0.0876894
0.0876894
0.116622
0.116622
0.116622
0.0617523
0.0617523
0.0642455
0.0642455
0.0233909
0.0233909
0.0446987
0.0446987
0.057122
0.057122
0.0581352
0.0581352
0.0634328
0.0634328
0.0621254
0.0621254
0.061852
0.061852
0.0368908
0.0368908
0.0659019
0.0659019
0.0619075
0.0619075
0.0132918
0.0132918
0.0380274
0.0380274
0.0618155
0.0618155
0.0440162
0.0440162
0.0441162
0.0441162
0.0618803
0.0618803
0.104972
0.104972
0.104972
0.0591443
0.0591443
0.0616905
0.0616905
0.0571717
0.0571717
0.0630042
0.0630042
0.06646
0.06646
0.0239804
0.0239804
0.0615401
0.0615401
0.0636262
0.0636262
0.04743
0.04743
0.0304837
0.0304837
0.0568803
0.0568803
0.0646352
0.0646352
0.0634913
0.0634913
0.0548042
0.0548042
0.0283563
0.0283563
0.0589719
0.0589719
0.0632202
0.0632202
0.0627994
0.0627994
0.0613964
0.0613964
0.0379811
0.0379811
0.0588663
0.0588663
0.0602997
0.0602997
0.0399674
0.0399674
0.0672126
0.0672126
0.0533099
0.0533099
0.0636055
0.0636055
0.06564
0.06564
0.0547147
0.0547147
0.0584886
0.0584886
0.0596977
0.0596977
0.0595388
0.0595388
0.0628937
0.0628937
0.0628137
0.0628137
0.0409212
0.0409212
0.066077
0.066077
0.0600791
0.0600791
0.063301
0.063301
0.0647126
0.0647126
0.0616366
0.0616366
0.0516024
0.0516024
0.0418324
0.0418324
0.0657795
0.0657795
0.0486749
0.0486749
0.0617401
0.0617401
0.0603128
0.0603128
0.223243
0.223243
0.0597087
0.0597087
0.0559557
0.0559557
0.0671476
0.0671476
0.0684543
0.0684543
0.119274
0.119274
0.137832
0.137832
0.0615038
0.0615038
0.0298747
0.0298747
0.0482326
0.0482326
0.0111698
0.0111698
0.062895
0.062895
0.0639577
0.0639577
0.0206867
0.0206867
0.0653782
0.0653782
0.061815
0.061815
0.0615093
0.0615093
0.0595727
0.0595727
0.068618
0.068618
0.0620391
0.0620391
0.0651573
0.0651573
0.0589229
0.0589229
0.0649742
0.0649742
0.0639809
0.0639809
0.0605361
0.0605361
0.0621942
0.0621942
0.0660861
0.0660861
0.0605151
0.0605151
0.0648145
0.0648145
0.0333778
0.0333778
0.061699
0.061699
0.0615231
0.0615231
0.0676185
0.0676185
0.0596221
0.0596221
0.0598858
0.0598858
0.0459644
0.0459644
0.0644796
0.0644796
0.0637159
0.0637159
0.0601415
0.0601415
0.0600274
0.0600274
0.0391983
0.0391983
0.0590842
0.0590842
0.0654201
0.0654201
0.0630158
0.0630158
0.162637
0.162637
0.063051
0.063051
0.0654963
0.0654963
0.0590222
0.0590222
0.0641232
0.0641232
0.209981
0.209981
0.209981
0.0672325
0.0672325
0.0671693
0.0671693
0.0585153
0.0585153
0.0604435
0.0604435
0.0340295
0.0340295
0.0419529
0.0419529
0.0484833
0.0484833
0.0464776
0.0464776
0.0983854
0.0983854
0.0983854
0.0589781
0.0589781
0.0576492
0.0576492
0.0589645
0.0589645
0.0651343
0.0651343
0.0677619
0.0677619
0.0651853
0.0651853
0.0622856
0.0622856
0.0624758
0.0624758
0.0631455
0.0631455
0.0644827
0.0644827
0.0571512
0.0571512
0.054542
0.054542
0.0612841
0.0612841
0.0556638
0.0556638
0.0551917
0.0551917
0.0612893
0.0612893
0.060456
0.060456
0.056687
0.056687
0.0351094
0.0351094
0.0687205
0.0687205
0.060464
0.060464
0.0546865
0.0546865
0.0335356
0.0335356
0.0650567
0.0650567
0.0613294
0.0613294
0.0583788
0.0583788
0.053287
0.053287
0.0603718
0.0603718
0.0603538
0.0603538
0.064383
0.064383
0.0620649
0.0620649
0.0603525
0.0603525
0.0166249
0.0166249
0.0638292
0.0638292
0.0686864
0.0686864
0.061392
0.061392
0.0645487
0.0645487
0.0642941
0.0642941
0.0316159
0.0316159
0.0589943
0.0589943
0.206656
0.206656
0.206656
0.0638465
0.0638465
0.0396931
0.0396931
0.0661011
0.0661011
0.0583395
0.0583395
0.0612532
0.0612532
0.0643207
0.0643207
0.0649211
0.0649211
0.0596475
0.0596475
0.0653342
0.0653342
0.066409
0.066409
0.0583005
0.0583005
0.0614267
0.0614267
0.0596643
0.0596643
0.0595213
0.0595213
0.0501327
0.0501327
0.0670331
0.0670331
0.0317485
0.0317485
0.0587411
0.0587411
0.0521945
0.0521945
0.0582391
0.0582391
0.0584404
0.0584404
0.064587
0.064587
0.0637109
0.0637109
0.048257
0.048257
0.0678454
0.0678454
0.062102
0.062102
0.034946
0.034946
0.0576367
0.0576367
0.0606208
0.0606208
0.0481411
0.0481411
0.03258
0.03258
0.0618543
0.0618543
0.0588699
0.0588699
0.0600416
0.0600416
0.0629493
0.0629493
0.0640096
0.0640096
0.0577595
0.0577595
0.0583698
0.0583698
0.0663925
0.0663925
0.0681551
0.0681551
0.0609274
0.0609274
0.0602513
0.0602513
0.0590134
0.0590134
0.0561806
0.0561806
0.0200038
0.0200038
0.0595059
0.0595059
0.061264
0.061264
0.0561326
0.0561326
0.0599665
0.0599665
0.0553715
0.0553715
0.0592052
0.0592052
0.0577528
0.0577528
0.0617159
0.0617159
0.0393574
0.0393574
0.060012
0.060012
0.0611801
0.0611801
0.0616773
0.0616773
0.0684862
0.0684862
0.0369902
0.0369902
0.0574211
0.0574211
0.0609096
0.0609096
0.0651802
0.0651802
0.0640375
0.0640375
0.0585386
0.0585386
0.0437546
0.0437546
0.0544372
0.0544372
0.0577098
0.0577098
0.0653165
0.0653165
0.0580336
0.0580336
0.0580686