/*--------------------------------*- C++ -*----------------------------------*\
  =========                 |
  \\      /  F ield         | OpenFOAM: The Open Source CFD Toolbox
   \\    /   O peration     | Website:  https://openfoam.org
    \\  /    A nd           | Version:  8
     \\/     M anipulation  |
\*---------------------------------------------------------------------------*/
FoamFile
{
    version     2.0;
    format      ascii;
    class       volScalarField;
    location    "0.6";
    object      k;
}
// * * * * * * * * * * * * * * * * * * * * * * * * * * * * * * * * * * * * * //

dimensions      [0 2 -2 0 0 0 0];

internalField   nonuniform List<scalar> 
1924
(
0.0249157
0.0266494
0.0357262
0.0361873
0.0281574
0.0370021
0.0370549
0.0377636
0.0377175
0.0343249
0.0382932
0.0382529
0.0241853
0.0389061
0.0388026
0.0386821
0.0268642
0.0388979
0.0226258
0.0392275
0.0179382
0.0404058
0.030984
0.039178
0.040742
0.0415425
0.0413549
0.0299134
0.0293276
0.0291086
0.031292
0.0413063
0.0234494
0.0279305
0.0313207
0.032792
0.0412883
0.0304952
0.0278438
0.0302684
0.0414328
0.020108
0.0416677
0.0290613
0.0312773
0.029561
0.0224328
0.0340656
0.0123667
0.0139594
0.0200251
0.0221164
0.0399236
0.0170386
0.0306744
0.0343473
0.0218065
0.0320457
0.0294197
0.038705
0.0283131
0.0385921
0.0257149
0.0271486
0.0181629
0.0345866
0.0383162
0.034274
0.0299841
0.020135
0.0172257
0.0385042
0.0271319
0.0304294
0.0304456
0.0294852
0.0351281
0.0315861
0.0340134
0.0247369
0.0365622
0.0411091
0.0313269
0.0177494
0.0239586
0.0356655
0.0308336
0.0388579
0.0123282
0.0165265
0.0386959
0.0405757
0.0306332
0.0325818
0.0180638
0.0179061
0.0355688
0.037048
0.0394148
0.0257478
0.0352049
0.0187468
0.039749
0.0402452
0.0331656
0.0334179
0.0346766
0.0336002
0.0381294
0.0322454
0.0359574
0.0319677
0.0303307
0.0306819
0.0339693
0.0153652
0.0357526
0.0385893
0.0376284
0.0348023
0.0218731
0.0138785
0.0153704
0.0140187
0.0383794
0.0349891
0.0312084
0.0315147
0.0324345
0.0196947
0.0358398
0.0352736
0.0230255
0.0314031
0.0210738
0.0343061
0.0325719
0.0327005
0.0392513
0.0311009
0.0342487
0.0384808
0.014173
0.0225538
0.0370584
0.0244122
0.0342861
0.0228573
0.0374977
0.0373564
0.030198
0.0138593
0.0296946
0.0369253
0.0372567
0.0354899
0.0138653
0.0334142
0.0364614
0.0285465
0.0303958
0.0292369
0.0372348
0.014364
0.0283674
0.0348297
0.0369117
0.0135612
0.0346426
0.0343268
0.0254457
0.0380761
0.0331365
0.0396893
0.034776
0.0354155
0.0295218
0.0145715
0.0323699
0.0382761
0.0379664
0.0386219
0.0326516
0.0372589
0.0120286
0.0243834
0.0314938
0.0392794
0.0353655
0.0316125
0.0346308
0.0380922
0.0364098
0.0383331
0.038501
0.0144175
0.0401693
0.0360426
0.0366137
0.0363231
0.0213657
0.0269487
0.0362814
0.0386853
0.0272159
0.0384146
0.0389724
0.0296418
0.0252359
0.015985
0.0150133
0.0348346
0.0391564
0.0387837
0.0396153
0.0327989
0.037138
0.0352853
0.0389455
0.0309089
0.035753
0.0315901
0.0369566
0.0390859
0.0386565
0.0404132
0.0370227
0.0345741
0.0395008
0.0371559
0.0275228
0.038845
0.0371727
0.0204877
0.0406155
0.0237683
0.0391134
0.0394497
0.0379202
0.0150417
0.0384455
0.0386324
0.0391333
0.0314215
0.0231467
0.0215145
0.0392147
0.0356486
0.0324639
0.0336134
0.023852
0.0157326
0.0397248
0.036329
0.035247
0.0390446
0.0412793
0.0393286
0.0363389
0.0394054
0.0373522
0.0384985
0.039104
0.0331408
0.0414214
0.0293036
0.0188072
0.0321901
0.0310811
0.0175288
0.0371749
0.0300358
0.0272903
0.0402777
0.0384509
0.0365264
0.0391815
0.0407785
0.0369677
0.0374808
0.0195775
0.0157538
0.0389842
0.0400329
0.0203989
0.031418
0.0370165
0.0174807
0.0396949
0.0391382
0.0390337
0.0276508
0.0407168
0.0390589
0.0139955
0.0282085
0.0390205
0.0311046
0.0311513
0.0390486
0.0178908
0.0378907
0.0389658
0.0370431
0.0395171
0.0409464
0.0207302
0.0389036
0.0397706
0.0326791
0.0243357
0.0369406
0.0401941
0.0397414
0.0360038
0.023188
0.0378032
0.0396051
0.0394307
0.0388383
0.0281921
0.0377648
0.0383792
0.0291611
0.0412556
0.0353484
0.0397619
0.0406085
0.0359658
0.0376072
0.0381076
0.0380451
0.0394939
0.0394368
0.0296266
0.0407886
0.0382703
0.0396405
0.0402261
0.0389436
0.0345893
0.030063
0.0406899
0.0332583
0.0389864
0.0383762
0.0261183
0.0381184
0.0365455
0.0412294
0.0417656
0.0173159
0.0250624
0.0388873
0.0240037
0.0330642
0.0124643
0.039463
0.0399109
0.0187657
0.0404992
0.0390193
0.0388894
0.0380579
0.0418356
0.0391123
0.0404372
0.0377883
0.040334
0.0399233
0.03848
0.0391735
0.0407944
0.038466
0.0402588
0.0097242
0.0389687
0.0388931
0.041442
0.0380807
0.0381943
0.0320187
0.0401262
0.0398115
0.0383009
0.038267
0.0287898
0.0378517
0.0405099
0.0395221
0.0256961
0.0395642
0.0405488
0.037827
0.0399828
0.0156735
0.0412563
0.0412628
0.0376205
0.0384327
0.0261977
0.0301252
0.033177
0.0322432
0.0113418
0.0378042
0.0372465
0.0378017
0.040403
0.0414763
0.0404183
0.0392501
0.0392879
0.0395769
0.0401277
0.0370349
0.0358923
0.0387932
0.0364036
0.0361718
0.0387966
0.0384374
0.0368309
0.0267322
0.04188
0.0384444
0.035953
0.0259586
0.0404002
0.0388005
0.0375518
0.0353396
0.0383953
0.038435
0.0400894
0.0391097
0.0383997
0.0162392
0.0398606
0.0418713
0.0388331
0.0401427
0.0400517
0.0249419
0.0378156
0.0155233
0.0398607
0.0290336
0.0407986
0.0375376
0.0387776
0.0400993
0.0403123
0.038107
0.0404697
0.0409256
0.0375259
0.0388519
0.0381407
0.0380408
0.0339291
0.041211
0.0250121
0.037744
0.0348547
0.0374964
0.037581
0.0401706
0.0398107
0.0330627
0.0415126
0.0391777
0.0266677
0.0372414
0.0385142
0.0330246
0.0254695
0.0390297
0.0377639
0.038263
0.0394822
0.0399302
0.0372888
0.0375519
0.0409528
0.0416452
0.0386297
0.0383557
0.0378212
0.0366071
0.0183681
0.0380304
0.0388235
0.0365836
0.0382301
0.036256
0.0379079
0.0372885
0.0389609
0.0288593
0.0382508
0.0387464
0.0389555
0.041796
0.0276846
0.0371519
0.0386327
0.0404031
0.0399856
0.0376255
0.0309848
0.0358472
0.0372723
0.0404756
0.0374115
0.0374268
0.0416577
0.0410687
0.0397596
0.0381418
0.0379831
0.0386178
0.0346186
0.0374335
0.0404724
0.0409421
0.0268865
0.0290695
0.0407198
0.0396565
0.0375051
0.0389165
0.0396249
0.035121
0.0343469
0.0374852
0.0399392
0.0390569
0.027486
0.0415921
0.0407779
0.029037
0.0253713
0.0298416
0.0364401
0.0375858
0.025264
0.0258198
0.0376231
0.0381301
0.037786
0.0371053
0.0383284
0.0385773
0.0386582
0.0358253
0.0312041
0.0207616
0.0269671
0.0248065
0.0415556
0.0377128
0.0326755
0.0371355
0.0394405
0.0367255
0.0339045
0.0366936
0.0257435
0.0404443
0.0361582
0.0372458
0.0390982
0.0372617
0.0272871
0.0374535
0.0331066
0.0305575
0.0374472
0.0369067
0.0413668
0.0378946
0.0395653
0.0373566
0.0191482
0.0279252
0.0379533
0.0360909
0.0350463
0.0295072
0.0406995
0.0382474
0.0165448
0.0205993
0.0240334
0.0373689
0.037511
0.0352859
0.0375463
0.037244
0.0193055
0.0379667
0.0395781
0.0228573
0.0393075
0.0388126
0.0409423
0.031931
0.0371765
0.0352371
0.0408307
0.0385719
0.0343397
0.0365744
0.0411129
0.0377086
0.0405631
0.0350406
0.0200819
0.0266072
0.0364882
0.0345419
0.0371964
0.0412453
0.0394537
0.0258738
0.0311331
0.0378634
0.04058
0.0357708
0.0380968
0.0374263
0.0352203
0.0368606
0.0388881
0.0199053
0.0376799
0.0255896
0.0371196
0.0362786
0.0371056
0.0372081
0.0400639
0.0389591
0.037236
0.0384416
0.04104
0.0381971
0.0370668
0.0394681
0.0372616
0.0372949
0.033483
0.0403374
0.0324323
0.0374428
0.0367537
0.0308316
0.0392972
0.0364577
0.0369753
0.0281633
0.0261844
0.0352106
0.0375198
0.0238639
0.0405832
0.0380511
0.0377066
0.0396527
0.04062
0.0327639
0.0200969
0.0370622
0.0384049
0.0348865
0.0392297
0.0382682
0.0242867
0.03457
0.037012
0.037021
0.0377038
0.0375921
0.0404649
0.0393623
0.0375746
0.0262912
0.0363254
0.0301568
0.0290927
0.0389153
0.0372382
0.0373693
0.0369353
0.0376781
0.0353744
0.0280046
0.0402731
0.0404962
0.0333471
0.0358875
0.0369646
0.0308598
0.0212239
0.0369168
0.0372003
0.0376705
0.0361859
0.0382213
0.037369
0.027005
0.0373035
0.0268161
0.0391049
0.0403448
0.0374395
0.0363717
0.0377888
0.0174595
0.0267653
0.0379859
0.0318174
0.0330079
0.0382236
0.0108536
0.00880419
0.0209027
0.0356128
0.0351544
0.0375213
0.0364997
0.0263168
0.0402433
0.037638
0.0391875
0.0375616
0.0369732
0.0378342
0.0359204
0.0233969
0.0375914
0.0326172
0.0155511
0.0379171
0.0215933
0.0388926
0.0340712
0.0378188
0.0349526
0.039877
0.0374189
0.0389985
0.0226889
0.0246599
0.0403312
0.022273
0.0215861
0.0263892
0.0379589
0.0226446
0.0375507
0.0380493
0.0336167
0.0396917
0.0356551
0.0374467
0.039504
0.0305829
0.0367238
0.0381529
0.0367781
0.027718
0.0374546
0.0322706
0.0358692
0.0383868
0.0376589
0.0322599
0.0372862
0.0354073
0.028936
0.0388319
0.0334785
0.0392506
0.022657
0.0383098
0.0368258
0.0366679
0.0285942
0.0361516
0.0352839
0.0365549
0.0375456
0.0395918
0.0331159
0.0358299
0.0156718
0.0369153
0.0358564
0.0239006
0.0369116
0.038655
0.0222661
0.0298676
0.0382203
0.0213004
0.0381296
0.0376242
0.0390061
0.0231006
0.0349217
0.0284191
0.0194477
0.0362159
0.0345504
0.0377956
0.0272223
0.0385621
0.0381323
0.0342158
0.0398196
0.0375834
0.0295438
0.0374302
0.0347911
0.0391799
0.0375418
0.0375784
0.0352599
0.0382769
0.0306214
0.0366175
0.0365181
0.0391384
0.0365883
0.0276252
0.0376628
0.0335785
0.0102422
0.0379533
0.0202412
0.0366036
0.0372715
0.0133996
0.0344668
0.0367325
0.0388361
0.0380236
0.0353489
0.0387768
0.0374093
0.032524
0.0286356
0.0382585
0.0374457
0.0339638
0.0371694
0.0237028
0.0235705
0.037533
0.0376865
0.0375469
0.0215486
0.0338578
0.0376397
0.0262176
0.0372627
0.0338471
0.0358045
0.0332726
0.0357413
0.0336845
0.038694
0.0377881
0.0209897
0.0295622
0.0347866
0.00943882
0.037041
0.0223083
0.0360949
0.0379202
0.0214498
0.0374397
0.0380653
0.0376141
0.0385228
0.0372701
0.0373581
0.038202
0.0310882
0.0153397
0.0375016
0.0353659
0.035315
0.034459
0.0381979
0.0337093
0.0382878
0.0350349
0.0215957
0.0365355
0.0222393
0.0363351
0.0379289
0.0363402
0.0295638
0.0364761
0.036519
0.0363043
0.0208748
0.0344038
0.0147939
0.0235606
0.0374409
0.0315445
0.0363385
0.0370566
0.0243368
0.0222463
0.0382808
0.0380821
0.027557
0.0332892
0.0353943
0.0302504
0.0396361
0.0386697
0.0368722
0.0374733
0.0381218
0.0368566
0.0308138
0.0376393
0.0325671
0.0374443
0.0326444
0.0371218
0.0372808
0.0252382
0.0147689
0.0331141
0.015798
0.0207546
0.0375276
0.0373404
0.0376155
0.0336219
0.0382823
0.0287895
0.0367913
0.0221345
0.0339496
0.0370666
0.0154654
0.0333815
0.00918914
0.034569
0.0377795
0.0280297
0.0312325
0.034635
0.0390909
0.0261984
0.0374646
0.0374286
0.03749
0.0362338
0.0285335
0.0260682
0.0352532
0.0227913
0.0362081
0.0380665
0.0210507
0.0374377
0.0367077
0.0368342
0.0332888
0.0382291
0.036887
0.0293274
0.0358055
0.0362251
0.0367321
0.0372408
0.0232762
0.0206244
0.0305842
0.0396722
0.037327
0.030615
0.0363431
0.0316184
0.02367
0.0292658
0.0370397
0.0371872
0.0346255
0.0363863
0.0311081
0.0288191
0.0375576
0.0331648
0.0344889
0.0382105
0.0385497
0.0338977
0.0246134
0.0365292
0.0327323
0.0380072
0.0375896
0.0338656
0.032802
0.0375944
0.0373068
0.0341731
0.0367212
0.0350308
0.0371275
0.0349023
0.0103077
0.0245822
0.0267023
0.0374347
0.0349684
0.036731
0.0324853
0.028715
0.0246608
0.0285659
0.0327038
0.0367398
0.0240042
0.0256585
0.0356289
0.0389637
0.0280323
0.0370813
0.030431
0.0381821
0.038923
0.0365488
0.0378347
0.0364765
0.0310315
0.0367979
0.0367276
0.0373404
0.0361849
0.0362393
0.0341417
0.0366832
0.0359318
0.0393878
0.0364889
0.0364568
0.0365006
0.0263894
0.0371581
0.0291044
0.0274051
0.0205573
0.0342203
0.0253696
0.0378651
0.0366434
0.0306414
0.028284
0.0380758
0.0300367
0.0364428
0.0292333
0.037265
0.036748
0.0217043
0.0370579
0.0313487
0.0367343
0.0138418
0.0373302
0.0329694
0.0159906
0.032501
0.0267705
0.0270914
0.0374916
0.0379513
0.0373038
0.0341009
0.0366432
0.0138749
0.0138038
0.0367909
0.0372931
0.0378709
0.0359666
0.0365305
0.0321884
0.0261704
0.0349105
0.0277377
0.0141981
0.0368651
0.0150524
0.0275222
0.037018
0.0361672
0.0368007
0.0335103
0.0357995
0.0174492
0.0186781
0.039265
0.0333202
0.0366668
0.0334343
0.0270095
0.0368255
0.0371089
0.0302152
0.0373382
0.0333366
0.0321986
0.0340807
0.0367129
0.0296627
0.0135651
0.0259387
0.0367055
0.0355605
0.0379344
0.0319172
0.0274612
0.0367765
0.0321363
0.0305914
0.0273893
0.0334027
0.037035
0.0199612
0.0258293
0.0282874
0.0354717
0.014884
0.0368238
0.0343845
0.0137418
0.00818596
0.0365495
0.0303116
0.037855
0.0362646
0.0371786
0.0346837
0.03371
0.0354449
0.028841
0.0371041
0.037185
0.0206045
0.0154654
0.0367361
0.0105931
0.0298021
0.0371581
0.0272065
0.0350965
0.034926
0.0284035
0.0272204
0.0310892
0.0389762
0.0361279
0.0365915
0.0206168
0.0323383
0.0357112
0.035393
0.0271637
0.0374059
0.0281081
0.0367993
0.0270818
0.0231883
0.0357638
0.0369625
0.0368971
0.0159868
0.0248709
0.0368772
0.0188025
0.0131656
0.0356623
0.024135
0.036812
0.0254133
0.0296347
0.0352152
0.0374891
0.0365076
0.0293484
0.0353941
0.0275444
0.0367564
0.0259207
0.0262459
0.0352545
0.0295412
0.0360949
0.0331916
0.0371652
0.0334635
0.0264641
0.035922
0.0355015
0.0316415
0.0063149
0.00603409
0.0369227
0.0366465
0.0309934
0.0288177
0.0374686
0.0333208
0.0283907
0.0151046
0.0164313
0.031535
0.0357819
0.0370256
0.0329294
0.0351685
0.0347477
0.0354659
0.0297425
0.0351457
0.0288002
0.035958
0.0347893
0.035338
0.0287878
0.0274566
0.0372026
0.0319323
0.0363465
0.0255769
0.0163765
0.036903
0.0243788
0.0346939
0.0260614
0.0339193
0.0143232
0.0300141
0.0232403
0.0187458
0.0363781
0.0343123
0.0283295
0.0208407
0.0240384
0.035573
0.0317864
0.0267555
0.0301106
0.0302688
0.0331352
0.0367022
0.0297925
0.0309018
0.0266185
0.0269247
0.0365016
0.0370224
0.0366083
0.0274999
0.0320462
0.0158443
0.0336182
0.0328457
0.0237364
0.0342031
0.0168178
0.0366077
0.0359491
0.0352248
0.0363836
0.0325696
0.0312987
0.0337736
0.0239952
0.035119
0.0301513
0.0331319
0.035555
0.0365643
0.0323849
0.0125014
0.0366982
0.0355399
0.0232273
0.0366301
0.032058
0.0261576
0.0334337
0.0126361
0.0296726
0.0332948
0.0343747
0.0129121
0.0148261
0.0353589
0.0309779
0.0332909
0.0277347
0.0323829
0.0350779
0.012921
0.0324756
0.031602
0.0318383
0.0319394
0.0360463
0.0123864
0.0321947
0.0311619
0.0263479
0.0333969
0.0366762
0.0269627
0.0361087
0.036462
0.0323976
0.0294282
0.0330776
0.0366771
0.0126444
0.0136727
0.0276908
0.0285311
0.028843
0.0203852
0.0350253
0.0313761
0.0180897
0.033183
0.0324199
0.0326592
0.034381
0.0137371
0.0142485
0.0281887
0.0332459
0.0172003
0.00577751
0.00602419
0.0298324
0.0248622
0.0280053
0.0287877
0.0360033
0.035673
0.0361052
0.0311715
0.0353483
0.0349791
0.00993955
0.0356516
0.011157
0.0122311
0.0365607
0.0326626
0.0222027
0.0148379
0.0361953
0.0270006
0.0358917
0.032059
0.029449
0.0315959
0.0332267
0.0246305
0.0249608
0.0199839
0.0277813
0.0353791
0.0164132
0.0309632
0.0350487
0.0127723
0.0227755
0.0277589
0.0210195
0.0292015
0.0110009
0.0215056
0.0320857
0.0163907
0.0273098
0.0280538
0.0164195
0.0153362
0.022499
0.0360901
0.0317622
0.0330068
0.0359991
0.0284526
0.0348885
0.0287322
0.0330707
0.038537
0.0348087
0.0311851
0.0286422
0.0186059
0.0307685
0.028864
0.0357225
0.0322587
0.0345615
0.0218389
0.0216089
0.0233692
0.034593
0.0325027
0.0347738
0.0321296
0.0305749
0.0287455
0.0273989
0.0328815
0.0157589
0.0286014
0.0329028
0.0299406
0.0186572
0.0264855
0.0269485
0.0286488
0.03239
0.0329173
0.0300153
0.0351542
0.0352317
0.0287123
0.0304057
0.035475
0.0165691
0.027622
0.0304008
0.0348004
0.0239879
0.027877
0.0353793
0.035135
0.0279835
0.0344288
0.0318586
0.0277871
0.032771
0.0111434
0.0350771
0.0258125
0.0352967
0.0357483
0.0344176
0.0278268
0.0223372
0.0350561
0.0194728
0.0357162
0.0297964
0.0302203
0.0131603
0.0191062
0.0186177
0.0161326
0.0343135
0.0156953
0.0338032
0.0270139
0.0193251
0.0255702
0.023162
0.0139215
0.0327999
0.0306356
0.0327395
0.0218796
0.0279565
0.0282493
0.0281618
0.0300938
0.0296967
0.0325153
0.0342827
0.0266284
0.0338147
0.0341763
0.0303361
0.0260286
0.0243939
0.0326234
0.0342117
0.0255697
0.034194
0.0183094
0.0318992
0.0283059
0.0121107
0.0322797
0.0298707
0.0300936
0.0323476
0.0322304
0.0249275
0.0299184
0.0184415
0.0214687
0.031952
0.0250477
0.0287173
0.0211226
0.0219745
0.0341151
0.0388736
0.0318128
0.0317918
0.0315937
0.0328673
0.0275406
0.0286387
0.0109826
0.0128178
0.0229365
0.0333432
0.0266102
0.0297503
0.0193373
0.0328437
0.0143757
0.019194
0.0329259
0.0295422
0.0192902
0.0285375
0.0319559
0.0172636
0.0236741
0.019313
0.029678
0.0243351
0.0243935
0.0310117
0.0291048
0.0271756
0.0328635
0.0308469
0.0295907
0.0262869
0.0294708
0.0286781
0.0338844
0.0246074
0.0309003
0.0313634
0.0117776
0.0181827
0.018407
0.0182261
0.031006
0.0249137
0.0340598
0.0287639
0.0292135
0.0339204
0.0237373
0.0321572
0.0344062
0.031422
0.0285827
0.0327325
0.0243821
0.033234
0.0271291
0.0296631
0.0241767
0.0344445
0.0284862
0.00906869
0.0112235
0.027483
0.0313976
0.0283102
0.0253577
0.0181967
0.0256175
0.0101244
0.0264629
0.0165799
0.027979
0.0326786
0.0312097
0.0307959
0.0299097
0.0249715
0.0191558
0.0320758
0.0150602
0.0157451
0.0253739
0.0289844
0.0262107
0.0165228
0.0294902
0.0318399
0.0308545
0.0308522
0.0258609
0.0276698
0.0157739
0.0328233
0.0244762
0.0288978
0.0295826
0.0187515
0.0254329
0.0309943
0.0244978
0.0249499
0.0187191
0.0292708
0.0180273
0.0179869
0.032583
0.0320505
0.0187838
0.016441
0.030733
0.0187956
0.0337652
0.0243338
0.00809022
0.0270451
0.0269691
0.0267321
0.0165154
0.0299258
0.0309418
0.0272421
0.0276913
0.0309589
0.0151543
0.0259456
0.0291088
0.0261475
0.0286165
0.0238131
0.0252928
0.0185952
0.026441
0.0298465
0.0292353
0.0288298
0.0274218
0.0228631
0.0119969
0.00818672
0.0233182
0.030792
0.0234834
0.0301704
0.0346979
0.0174399
0.0178205
0.0282243
0.0267222
0.0172506
0.0291331
0.0246142
0.0245705
0.0227666
0.0248649
0.0274826
0.0288074
0.0153836
0.0151439
0.03066
0.016239
0.0175436
0.0169223
0.0217268
0.0316337
0.0251387
0.0264668
0.0275151
0.00954771
0.0065985
0.0295687
0.0211773
0.0246845
0.0188006
0.0182566
0.0280047
0.027034
0.0256254
0.024899
0.0286792
0.0221699
0.0271412
0.016405
0.0147
0.0260572
0.0164994
0.0297674
0.0167554
0.0216326
0.0170685
0.0177651
0.0176035
0.0245896
0.0154982
0.0262952
0.0158694
0.0243082
0.0260921
0.0162669
0.015638
0.0219316
0.0238396
0.0229499
0.0232188
0.0254612
0.0264383
0.0239674
0.0155201
0.018557
0.0244966
0.0197849
0.013952
0.0166756
0.0181704
0.0171793
0.0176079
0.0152236
0.0172732
0.0143731
0.0200815
0.0223931
0.0224729
0.0273972
0.0126771
0.0124181
0.0144449
0.0189366
0.0207859
0.0190039
0.0259419
0.0248938
0.0224999
0.024252
0.0102442
0.0132981
0.0220636
0.0155713
0.0118313
0.00811622
0.0102763
0.0167398
0.0185927
0.00532518
0.00586147
0.00440596
0.00360844
0.00806021
0.00734966
0.020407
0.0199871
0.0174196
0.021667
0.0220328
0.0239979
0.0179165
0.0183435
0.024428
0.0243758
0.014307
0.0114332
0.0176518
0.00969747
0.0129665
0.0133723
0.0158186
0.00636751
0.00731706
0.00880098
0.0123633
0.0127106
0.0158083
0.0153926
0.0152291
0.016479
0.0332159
0.0202693
0.0234261
0.0218483
0.0274841
0.0274193
0.0281155
0.0204399
0.0250804
0.0270027
0.0304278
0.038655
0.0161661
0.0298017
0.027329
0.0110391
0.0339811
0.0267845
0.0138779
0.0268536
0.0141374
0.0388483
0.0124561
0.0288061
0.0389336
0.0154747
0.0145358
0.0359083
0.0287445
0.0118141
0.0116805
0.0135096
0.0100424
0.0160319
0.00961275
0.0119534
0.0108777
0.0273904
0.0179587
0.0253113
0.0070674
0.00470886
0.00605199
0.018359
0.0357986
0.038493
0.00786647
0.00862285
0.00931384
0.0267198
0.028141
0.0182496
0.0187853
0.0338478
0.0147817
0.0123963
0.0107418
0.0082052
0.0156903
0.0105388
0.0161008
0.012235
0.0105809
0.0111623
0.00635634
0.00618435
0.0266343
0.0364862
0.011657
0.0345502
0.0104124
0.00841174
0.0126505
0.0111274
0.0142278
0.0089182
0.0362242
0.0116651
0.0159276
0.0154178
0.00459203
0.0137013
0.0133098
0.0119229
0.00909476
0.0377332
0.0126817
0.0370835
0.0129867
0.0135801
0.0388863
0.0124656
0.0100748
0.00921068
0.017804
0.0373371
0.0391718
0.0122165
0.0111862
0.00763679
0.0381912
0.0376673
0.0124147
0.0382041
0.0377929
0.00975527
0.0377941
0.0384494
0.0174338
0.0382413
0.0180739
0.0143702
0.0139256
0.00812739
0.0376175
0.0100542
0.00965086
0.0389916
)
;

boundaryField
{
    patch0
    {
        type            kqRWallFunction;
        value           nonuniform List<scalar> 
4010
(
0.0249157
0.0249157
0.0266494
0.0266494
0.0357262
0.0357262
0.0361873
0.0361873
0.0281574
0.0281574
0.0370021
0.0370021
0.0370549
0.0370549
0.0377636
0.0377636
0.0377175
0.0377175
0.0343249
0.0343249
0.0382932
0.0382932
0.0382529
0.0382529
0.0241853
0.0241853
0.0389061
0.0389061
0.0388026
0.0388026
0.0386821
0.0386821
0.0268642
0.0268642
0.0388979
0.0388979
0.0226258
0.0226258
0.0392275
0.0392275
0.0179382
0.0179382
0.0404058
0.0404058
0.030984
0.030984
0.039178
0.039178
0.040742
0.040742
0.0415425
0.0415425
0.0413549
0.0413549
0.0299134
0.0299134
0.0293276
0.0293276
0.0291086
0.0291086
0.031292
0.031292
0.0413063
0.0413063
0.0234494
0.0234494
0.0279305
0.0279305
0.0313207
0.0313207
0.032792
0.032792
0.0412883
0.0412883
0.0304952
0.0304952
0.0278438
0.0278438
0.0302684
0.0302684
0.0414328
0.0414328
0.020108
0.020108
0.0416677
0.0416677
0.0290613
0.0290613
0.0312773
0.0312773
0.029561
0.029561
0.0224328
0.0224328
0.0340656
0.0340656
0.0123667
0.0123667
0.0139594
0.0139594
0.0200251
0.0200251
0.0221164
0.0221164
0.0399236
0.0399236
0.0170386
0.0170386
0.0306744
0.0306744
0.0343473
0.0343473
0.0218065
0.0218065
0.0320457
0.0320457
0.0294197
0.0294197
0.038705
0.038705
0.0283131
0.0283131
0.0385921
0.0385921
0.0257149
0.0257149
0.0271486
0.0271486
0.0181629
0.0181629
0.0345866
0.0345866
0.0383162
0.0383162
0.034274
0.034274
0.0299841
0.0299841
0.020135
0.020135
0.0172257
0.0172257
0.0385042
0.0385042
0.0271319
0.0271319
0.0304294
0.0304294
0.0304456
0.0304456
0.0294852
0.0294852
0.0351281
0.0351281
0.0315861
0.0315861
0.0340134
0.0340134
0.0247369
0.0247369
0.0365622
0.0365622
0.0411091
0.0411091
0.0313269
0.0313269
0.0177494
0.0177494
0.0239586
0.0239586
0.0356655
0.0356655
0.0308336
0.0308336
0.0388579
0.0388579
0.0123282
0.0123282
0.0165265
0.0165265
0.0386959
0.0386959
0.0405757
0.0405757
0.0306332
0.0306332
0.0325818
0.0325818
0.0180638
0.0180638
0.0179061
0.0179061
0.0355688
0.0355688
0.037048
0.037048
0.0394148
0.0394148
0.0257478
0.0257478
0.0352049
0.0352049
0.0187468
0.0187468
0.039749
0.039749
0.0402452
0.0402452
0.0331656
0.0331656
0.0334179
0.0334179
0.0346766
0.0346766
0.0336002
0.0336002
0.0381294
0.0381294
0.0322454
0.0322454
0.0359574
0.0359574
0.0319677
0.0319677
0.0303307
0.0303307
0.0306819
0.0306819
0.0339693
0.0339693
0.0153652
0.0153652
0.0357526
0.0357526
0.0385893
0.0385893
0.0376284
0.0376284
0.0348023
0.0348023
0.0218731
0.0218731
0.0138785
0.0138785
0.0153704
0.0153704
0.0140187
0.0140187
0.0383794
0.0383794
0.0349891
0.0349891
0.0312084
0.0312084
0.0315147
0.0315147
0.0324345
0.0324345
0.0196947
0.0196947
0.0358398
0.0358398
0.0352736
0.0352736
0.0230255
0.0230255
0.0314031
0.0314031
0.0210738
0.0210738
0.0343061
0.0343061
0.0325719
0.0325719
0.0327005
0.0327005
0.0392513
0.0392513
0.0311009
0.0311009
0.0342487
0.0342487
0.0384808
0.0384808
0.014173
0.014173
0.014173
0.0225538
0.0225538
0.0225538
0.0370584
0.0370584
0.0244122
0.0244122
0.0342861
0.0342861
0.0228573
0.0228573
0.0374977
0.0374977
0.0373564
0.0373564
0.030198
0.030198
0.0138593
0.0138593
0.0138593
0.0296946
0.0296946
0.0369253
0.0369253
0.0372567
0.0372567
0.0354899
0.0354899
0.0138653
0.0138653
0.0334142
0.0334142
0.0364614
0.0364614
0.0285465
0.0285465
0.0303958
0.0303958
0.0292369
0.0292369
0.0372348
0.0372348
0.014364
0.014364
0.0283674
0.0283674
0.0348297
0.0348297
0.0369117
0.0369117
0.0135612
0.0135612
0.0346426
0.0346426
0.0343268
0.0343268
0.0254457
0.0254457
0.0380761
0.0380761
0.0331365
0.0331365
0.0396893
0.0396893
0.034776
0.034776
0.0354155
0.0354155
0.0295218
0.0295218
0.0145715
0.0145715
0.0323699
0.0323699
0.0382761
0.0382761
0.0379664
0.0379664
0.0386219
0.0386219
0.0326516
0.0326516
0.0372589
0.0372589
0.0120286
0.0120286
0.0243834
0.0243834
0.0314938
0.0314938
0.0392794
0.0392794
0.0353655
0.0353655
0.0316125
0.0316125
0.0346308
0.0346308
0.0380922
0.0380922
0.0364098
0.0364098
0.0383331
0.0383331
0.038501
0.038501
0.0144175
0.0144175
0.0144175
0.0401693
0.0401693
0.0360426
0.0360426
0.0366137
0.0366137
0.0363231
0.0363231
0.0213657
0.0213657
0.0269487
0.0269487
0.0362814
0.0362814
0.0386853
0.0386853
0.0272159
0.0272159
0.0384146
0.0384146
0.0389724
0.0389724
0.0296418
0.0296418
0.0252359
0.0252359
0.015985
0.015985
0.015985
0.0150133
0.0150133
0.0348346
0.0348346
0.0391564
0.0391564
0.0387837
0.0387837
0.0396153
0.0396153
0.0327989
0.0327989
0.037138
0.037138
0.0352853
0.0352853
0.0389455
0.0389455
0.0309089
0.0309089
0.035753
0.035753
0.0315901
0.0315901
0.0369566
0.0369566
0.0390859
0.0390859
0.0386565
0.0386565
0.0404132
0.0404132
0.0370227
0.0370227
0.0345741
0.0345741
0.0395008
0.0395008
0.0371559
0.0371559
0.0275228
0.0275228
0.038845
0.038845
0.0371727
0.0371727
0.0204877
0.0204877
0.0406155
0.0406155
0.0237683
0.0237683
0.0237683
0.0391134
0.0391134
0.0394497
0.0394497
0.0379202
0.0379202
0.0150417
0.0150417
0.0150417
0.0384455
0.0384455
0.0386324
0.0386324
0.0391333
0.0391333
0.0314215
0.0314215
0.0231467
0.0231467
0.0215145
0.0215145
0.0392147
0.0392147
0.0356486
0.0356486
0.0324639
0.0324639
0.0336134
0.0336134
0.023852
0.023852
0.0157326
0.0157326
0.0397248
0.0397248
0.036329
0.036329
0.035247
0.035247
0.0390446
0.0390446
0.0412793
0.0412793
0.0393286
0.0393286
0.0363389
0.0363389
0.0394054
0.0394054
0.0373522
0.0373522
0.0384985
0.0384985
0.039104
0.039104
0.0331408
0.0331408
0.0414214
0.0414214
0.0293036
0.0293036
0.0188072
0.0188072
0.0321901
0.0321901
0.0310811
0.0310811
0.0175288
0.0175288
0.0371749
0.0371749
0.0300358
0.0300358
0.0272903
0.0272903
0.0402777
0.0402777
0.0384509
0.0384509
0.0365264
0.0365264
0.0391815
0.0391815
0.0407785
0.0407785
0.0369677
0.0369677
0.0374808
0.0374808
0.0195775
0.0195775
0.0157538
0.0157538
0.0157538
0.0389842
0.0389842
0.0400329
0.0400329
0.0203989
0.0203989
0.031418
0.031418
0.0370165
0.0370165
0.0174807
0.0174807
0.0396949
0.0396949
0.0391382
0.0391382
0.0390337
0.0390337
0.0276508
0.0276508
0.0407168
0.0407168
0.0390589
0.0390589
0.0139955
0.0139955
0.0282085
0.0282085
0.0390205
0.0390205
0.0311046
0.0311046
0.0311513
0.0311513
0.0390486
0.0390486
0.0178908
0.0178908
0.0178908
0.0378907
0.0378907
0.0389658
0.0389658
0.0370431
0.0370431
0.0395171
0.0395171
0.0409464
0.0409464
0.0207302
0.0207302
0.0389036
0.0389036
0.0397706
0.0397706
0.0326791
0.0326791
0.0243357
0.0243357
0.0369406
0.0369406
0.0401941
0.0401941
0.0397414
0.0397414
0.0360038
0.0360038
0.023188
0.023188
0.0378032
0.0378032
0.0396051
0.0396051
0.0394307
0.0394307
0.0388383
0.0388383
0.0281921
0.0281921
0.0377648
0.0377648
0.0383792
0.0383792
0.0291611
0.0291611
0.0412556
0.0412556
0.0353484
0.0353484
0.0397619
0.0397619
0.0406085
0.0406085
0.0359658
0.0359658
0.0376072
0.0376072
0.0381076
0.0381076
0.0380451
0.0380451
0.0394939
0.0394939
0.0394368
0.0394368
0.0296266
0.0296266
0.0407886
0.0407886
0.0382703
0.0382703
0.0396405
0.0396405
0.0402261
0.0402261
0.0389436
0.0389436
0.0345893
0.0345893
0.030063
0.030063
0.0406899
0.0406899
0.0332583
0.0332583
0.0389864
0.0389864
0.0383762
0.0383762
0.0261183
0.0261183
0.0381184
0.0381184
0.0365455
0.0365455
0.0412294
0.0412294
0.0417656
0.0417656
0.0173159
0.0173159
0.0250624
0.0250624
0.0388873
0.0388873
0.0240037
0.0240037
0.0330642
0.0330642
0.0124643
0.0124643
0.039463
0.039463
0.0399109
0.0399109
0.0187657
0.0187657
0.0404992
0.0404992
0.0390193
0.0390193
0.0388894
0.0388894
0.0380579
0.0380579
0.0418356
0.0418356
0.0391123
0.0391123
0.0404372
0.0404372
0.0377883
0.0377883
0.040334
0.040334
0.0399233
0.0399233
0.03848
0.03848
0.0391735
0.0391735
0.0407944
0.0407944
0.038466
0.038466
0.0402588
0.0402588
0.0097242
0.0097242
0.0389687
0.0389687
0.0388931
0.0388931
0.041442
0.041442
0.0380807
0.0380807
0.0381943
0.0381943
0.0320187
0.0320187
0.0401262
0.0401262
0.0398115
0.0398115
0.0383009
0.0383009
0.038267
0.038267
0.0287898
0.0287898
0.0378517
0.0378517
0.0405099
0.0405099
0.0395221
0.0395221
0.0256961
0.0256961
0.0395642
0.0395642
0.0405488
0.0405488
0.037827
0.037827
0.0399828
0.0399828
0.0156735
0.0156735
0.0156735
0.0412563
0.0412563
0.0412628
0.0412628
0.0376205
0.0376205
0.0384327
0.0384327
0.0261977
0.0261977
0.0301252
0.0301252
0.033177
0.033177
0.0322432
0.0322432
0.0113418
0.0113418
0.0113418
0.0378042
0.0378042
0.0372465
0.0372465
0.0378017
0.0378017
0.040403
0.040403
0.0414763
0.0414763
0.0404183
0.0404183
0.0392501
0.0392501
0.0392879
0.0392879
0.0395769
0.0395769
0.0401277
0.0401277
0.0370349
0.0370349
0.0358923
0.0358923
0.0387932
0.0387932
0.0364036
0.0364036
0.0361718
0.0361718
0.0387966
0.0387966
0.0384374
0.0384374
0.0368309
0.0368309
0.0267322
0.0267322
0.04188
0.04188
0.0384444
0.0384444
0.035953
0.035953
0.0259586
0.0259586
0.0404002
0.0404002
0.0388005
0.0388005
0.0375518
0.0375518
0.0353396
0.0353396
0.0383953
0.0383953
0.038435
0.038435
0.0400894
0.0400894
0.0391097
0.0391097
0.0383997
0.0383997
0.0162392
0.0162392
0.0398606
0.0398606
0.0418713
0.0418713
0.0388331
0.0388331
0.0401427
0.0401427
0.0400517
0.0400517
0.0249419
0.0249419
0.0378156
0.0378156
0.0155233
0.0155233
0.0155233
0.0398607
0.0398607
0.0290336
0.0290336
0.0407986
0.0407986
0.0375376
0.0375376
0.0387776
0.0387776
0.0400993
0.0400993
0.0403123
0.0403123
0.038107
0.038107
0.0404697
0.0404697
0.0409256
0.0409256
0.0375259
0.0375259
0.0388519
0.0388519
0.0381407
0.0381407
0.0380408
0.0380408
0.0339291
0.0339291
0.041211
0.041211
0.0250121
0.0250121
0.037744
0.037744
0.0348547
0.0348547
0.0374964
0.0374964
0.037581
0.037581
0.0401706
0.0401706
0.0398107
0.0398107
0.0330627
0.0330627
0.0415126
0.0415126
0.0391777
0.0391777
0.0266677
0.0266677
0.0372414
0.0372414
0.0385142
0.0385142
0.0330246
0.0330246
0.0254695
0.0254695
0.0390297
0.0390297
0.0377639
0.0377639
0.038263
0.038263
0.0394822
0.0394822
0.0399302
0.0399302
0.0372888
0.0372888
0.0375519
0.0375519
0.0409528
0.0409528
0.0416452
0.0416452
0.0386297
0.0386297
0.0383557
0.0383557
0.0378212
0.0378212
0.0366071
0.0366071
0.0183681
0.0183681
0.0380304
0.0380304
0.0388235
0.0388235
0.0365836
0.0365836
0.0382301
0.0382301
0.036256
0.036256
0.0379079
0.0379079
0.0372885
0.0372885
0.0389609
0.0389609
0.0288593
0.0288593
0.0382508
0.0382508
0.0387464
0.0387464
0.0389555
0.0389555
0.041796