/*--------------------------------*- C++ -*----------------------------------*\
  =========                 |
  \\      /  F ield         | OpenFOAM: The Open Source CFD Toolbox
   \\    /   O peration     | Website:  https://openfoam.org
    \\  /    A nd           | Version:  8
     \\/     M anipulation  |
\*---------------------------------------------------------------------------*/
FoamFile
{
    version     2.0;
    format      ascii;
    class       volScalarField;
    location    "0.6";
    object      nut;
}
// * * * * * * * * * * * * * * * * * * * * * * * * * * * * * * * * * * * * * //

dimensions      [0 2 -1 0 0 0 0];

internalField   nonuniform List<scalar> 
1924
(
0.00177064
0.00183198
0.00212217
0.00213493
0.00188311
0.00215863
0.00215995
0.00218058
0.00217927
0.00208017
0.00219601
0.00219498
0.00174336
0.00221384
0.00221029
0.00220671
0.00183707
0.00221369
0.00168723
0.00222286
0.00150096
0.00225632
0.00197568
0.00222141
0.00226632
0.00228702
0.00228178
0.0019421
0.00192146
0.00191342
0.00198427
0.0022814
0.00171658
0.00187429
0.00198825
0.00203304
0.00228042
0.00196043
0.00187155
0.00195139
0.00228414
0.00158905
0.00229068
0.00191331
0.00198168
0.00192689
0.00168082
0.00206908
0.00124664
0.00132459
0.00158717
0.00166704
0.00224319
0.00146381
0.00196316
0.00208039
0.00165633
0.00200634
0.00192485
0.0022065
0.00188941
0.00220419
0.00179996
0.00184506
0.00150975
0.00208517
0.0021958
0.00207826
0.00194225
0.00159111
0.00147151
0.00220154
0.00184797
0.00195593
0.00195679
0.00192594
0.00210202
0.00199302
0.00206786
0.00176603
0.00214556
0.00227486
0.00198459
0.00149383
0.00173558
0.00212073
0.00197205
0.00221202
0.0012456
0.00144234
0.00220668
0.0022598
0.00196156
0.002024
0.00150788
0.00149634
0.00211533
0.00216002
0.00222665
0.00180048
0.00210713
0.00153546
0.00223647
0.00225045
0.00204187
0.00205048
0.00209102
0.00205508
0.00219008
0.00201397
0.00212714
0.00200678
0.00195564
0.00196419
0.0020667
0.00138991
0.0021231
0.0022039
0.0021791
0.00209227
0.00165779
0.000504715
0.00138927
0.00132926
0.00219771
0.00209805
0.00198168
0.00199097
0.00202078
0.000555712
0.00212367
0.00210889
0.000197419
0.00198704
0.00162725
0.00207824
0.00202696
0.00203038
0.00222312
0.00198091
0.00207597
0.00220085
0.000121749
0.000153734
0.00216072
0.00175197
0.00207593
0.00169695
0.00217239
0.00217116
0.00194836
0.000252163
0.00193381
0.00215725
0.00216622
0.00211277
0.000504505
0.00205307
0.00214226
0.000219999
0.00195512
0.00191727
0.00216595
0.000513437
0.00188819
0.00209379
0.00215579
0.00037819
0.00208748
0.00207964
0.00178758
0.0021897
0.00204192
0.00223459
0.0020926
0.00211075
0.00192709
0.000312088
0.00202041
0.00219553
0.00218557
0.00220486
0.00202628
0.00216565
0.00122914
0.00175318
0.00199141
0.00222352
0.00210948
0.00199357
0.00208667
0.00219013
0.00214081
0.0021971
0.00220178
0.000257187
0.00224876
0.00212924
0.00214569
0.0021378
0.000357227
0.00184287
0.00213786
0.0022072
0.0018499
0.0021984
0.00221531
0.0019316
0.00178286
0.000123964
0.000524918
0.00209533
0.00222041
0.00220974
0.00223301
0.00203118
0.00216242
0.00210636
0.00221459
0.00197181
0.00212037
0.00199282
0.00215744
0.00221854
0.00220644
0.00225558
0.00215896
0.00208609
0.00223013
0.0021619
0.000302615
0.00221054
0.00216206
0.000326417
0.00226127
0.000151689
0.00221932
0.00222894
0.00218542
0.00026269
0.00219987
0.0022046
0.00221984
0.00198887
0.00027748
0.00164587
0.00222242
0.00211812
0.00202055
0.00205672
0.00173594
0.000460089
0.00223639
0.0021397
0.00210599
0.00221754
0.0022793
0.00222463
0.00213756
0.00222773
0.00216803
0.00220186
0.0022178
0.0020417
0.00228498
0.00191981
0.00153601
0.00201252
0.00197672
0.000324737
0.00216329
0.00194334
0.00185053
0.00225166
0.0021993
0.00214462
0.00222153
0.00226581
0.0021583
0.00217117
0.00039338
0.000191527
0.00221497
0.00224509
0.00160106
0.00198749
0.00215889
0.000473066
0.00223562
0.00221909
0.00221701
0.00186526
0.00226408
0.00221788
0.00132629
0.00188324
0.00221682
0.00197824
0.00197969
0.00221769
0.000274428
0.00218472
0.00221509
0.00216011
0.00223071
0.00227046
0.00161285
0.00221342
0.00223733
0.00202643
0.00174848
0.00215917
0.00224957
0.0022388
0.00212875
0.00170655
0.002181
0.00223301
0.00222821
0.00221115
0.00188334
0.00218047
0.00219846
0.0019149
0.00227907
0.00210948
0.00223708
0.00226103
0.00212774
0.00217627
0.00218931
0.00218797
0.00223201
0.00222839
0.00193045
0.00226606
0.00219403
0.00223414
0.00225045
0.0022145
0.00208668
0.00194444
0.0022653
0.00204521
0.00221566
0.00219764
0.000275012
0.00219016
0.00214816
0.00227839
0.00229339
0.00022625
0.000410146
0.00221287
0.00173578
0.00203994
0.0012518
0.00222848
0.00224147
0.00153208
0.00225789
0.0022167
0.00221292
0.00218819
0.0022956
0.00221923
0.00225861
0.00218109
0.00225343
0.00224205
0.00220139
0.00222063
0.00226639
0.00220056
0.00225056
0.000254972
0.00221511
0.00221284
0.00228591
0.002189
0.00219238
0.00200738
0.00224738
0.00223878
0.00219526
0.00219555
0.00190306
0.00218244
0.00225763
0.00223086
0.000365392
0.00223438
0.00225935
0.00218188
0.00224374
0.000105291
0.00227847
0.00228134
0.00217682
0.00219935
0.00181516
0.00194689
0.00204326
0.00201314
0.000117674
0.00218088
0.00216581
0.0021811
0.00225559
0.00228484
0.00225554
0.00222606
0.00222356
0.00223246
0.00224744
0.00215993
0.00212575
0.00221007
0.00214268
0.00213357
0.00221027
0.00219943
0.00215369
0.00183184
0.00229705
0.00219995
0.00212732
0.00180842
0.00225797
0.00220927
0.00217395
0.00210933
0.00219768
0.00220288
0.00224662
0.00221802
0.00219888
0.00142761
0.00224033
0.00229723
0.00221073
0.00224682
0.00224551
0.00177091
0.0021816
0.000104945
0.00223973
0.0019113
0.00226633
0.00217377
0.00220941
0.00224991
0.00225285
0.00219109
0.00225611
0.00226989
0.00217387
0.00221162
0.00219435
0.00218811
0.00206665
0.00228023
0.00177345
0.0021827
0.00209479
0.00217273
0.00217504
0.00224861
0.00223887
0.00203873
0.00228604
0.00222441
0.00183154
0.00216569
0.00220223
0.00203893
0.00179197
0.00221648
0.00218024
0.00219456
0.00222871
0.00224181
0.00216659
0.00217429
0.00227348
0.00229021
0.00220431
0.00219754
0.00218154
0.00214677
0.00151796
0.00218749
0.00221425
0.00214586
0.00219354
0.00213657
0.00218444
0.0021668
0.00221362
0.00190453
0.00219425
0.00220849
0.0022144
0.00229567
0.0018648
0.00216338
0.0022053
0.00225401
0.00224706
0.00217653
0.00197477
0.0021245
0.00216654
0.00225739
0.00217057
0.00217103
0.00229235
0.00227387
0.00223687
0.00219117
0.00218977
0.00220499
0.00208761
0.00217106
0.00225729
0.00227034
0.00183905
0.00191493
0.00226348
0.00223396
0.00217589
0.00221345
0.00223731
0.00210469
0.00207953
0.00217266
0.00224202
0.00221822
0.00186023
0.00228935
0.00226897
0.00191063
0.00178922
0.001938
0.00214202
0.00217495
0.00178336
0.00179489
0.00217647
0.0021919
0.00218058
0.00216177
0.0021966
0.00220731
0.00220473
0.00212562
0.00198406
0.0016172
0.00184128
0.00176881
0.00228897
0.00218197
0.00202694
0.00216283
0.00222821
0.0021516
0.00206602
0.00214909
0.00180024
0.00226004
0.00213371
0.00216538
0.00221742
0.00216655
0.00185296
0.00217199
0.00204342
0.00195989
0.00217077
0.00215781
0.00228482
0.00218433
0.00223122
0.00216929
0.0015503
0.00187733
0.00218547
0.00213493
0.00210046
0.00192661
0.00226351
0.00219763
0.000364387
0.00161029
0.00174134
0.00216877
0.00217358
0.00210737
0.00217443
0.00216842
0.00155894
0.00218611
0.00223156
0.00169057
0.00222882
0.00221067
0.0022703
0.00200489
0.00216438
0.00211
0.00226793
0.00220349
0.00208112
0.0021459
0.00227812
0.00217903
0.00225979
0.00210014
0.00158718
0.00182721
0.00214338
0.00208536
0.00216397
0.00228119
0.00222821
0.00180448
0.00198196
0.0021835
0.00226012
0.00212355
0.00219012
0.00217028
0.00210552
0.00215744
0.00221659
0.00158084
0.00217743
0.00179391
0.0021619
0.00213721
0.002162
0.00216511
0.00224978
0.00221372
0.00216581
0.00219997
0.00227567
0.00219299
0.00216048
0.00222951
0.00216928
0.00216764
0.00205541
0.00225336
0.00202264
0.00217182
0.00215472
0.00197012
0.00222405
0.00214441
0.0021596
0.00188562
0.00181528
0.00210535
0.00217395
0.00172975
0.00226188
0.0021889
0.00218215
0.00223845
0.00226466
0.00203093
0.00158871
0.00216032
0.00219884
0.00209567
0.00222186
0.00219506
0.00175097
0.00208739
0.00215787
0.00215828
0.00217894
0.00217579
0.00225909
0.00222543
0.00217536
0.00181836
0.00213808
0.00195109
0.00191334
0.00221291
0.00216523
0.00216859
0.00215997
0.00217789
0.00211191
0.00187745
0.00225527
0.00226067
0.00204887
0.00212907
0.00215736
0.00197006
0.00163461
0.00215611
0.00216485
0.00217744
0.00213417
0.00219739
0.00217244
0.00184664
0.00216787
0.00183663
0.0022193
0.00225336
0.00217182
0.0021434
0.00218126
0.00148087
0.00183551
0.00218705
0.00200146
0.00204058
0.00219384
0.00026057
0.000121645
0.00161927
0.00211725
0.0021036
0.00217412
0.00214604
0.00181808
0.00225361
0.00217697
0.00222256
0.00217482
0.00215802
0.00218259
0.00212991
0.0017182
0.00217594
0.00202643
0.000314995
0.00218526
0.000380603
0.00221718
0.00207264
0.00218561
0.00209755
0.00224307
0.00217096
0.00221544
0.00168738
0.00175946
0.00225312
0.00167635
0.00164755
0.00182184
0.0021862
0.00168829
0.0021746
0.00218882
0.00205702
0.00223767
0.00212118
0.00217141
0.00223387
0.00196517
0.0021504
0.00219195
0.00215188
0.00186673
0.0021722
0.002015
0.00212438
0.00220269
0.00217816
0.002018
0.00216731
0.00211488
0.0019086
0.00221068
0.00205196
0.00222297
0.00168836
0.0021963
0.00215368
0.00214845
0.00189517
0.00213603
0.00211119
0.0021448
0.00217481
0.00223538
0.00204173
0.00212321
0.0014046
0.00215639
0.00212845
0.0017337
0.00215595
0.00220801
0.00167882
0.00193914
0.00219358
0.00163579
0.00219116
0.00217694
0.00221996
0.001705
0.00209639
0.00189001
0.000357012
0.00213815
0.00208907
0.00218115
0.0018546
0.00220514
0.00219367
0.002079
0.00223858
0.00217545
0.00193192
0.0021708
0.00209254
0.00222396
0.0021739
0.00217551
0.00210986
0.00219551
0.00196339
0.00215006
0.00214433
0.00222191
0.00214651
0.00186495
0.00217717
0.00205572
0.000104745
0.00218641
0.000394857
0.00214708
0.00216717
0.00129763
0.00208945
0.00215096
0.00221354
0.00218785
0.00211321
0.00220943
0.00217036
0.00202748
0.00189883
0.0021949
0.00217191
0.00207112
0.00216667
0.00172887
0.00172251
0.00217346
0.00217844
0.00217482
0.00164767
0.0020685
0.00217736
0.00181973
0.00216712
0.00206793
0.0021264
0.00204637
0.00212414
0.00206316
0.00220695
0.00218446
0.00162626
0.00192927
0.00209638
0.000285744
0.00216011
0.00167403
0.00213468
0.00218472
0.00164347
0.00217141
0.00219062
0.00217655
0.00220302
0.00216612
0.00216848
0.00219605
0.00197815
0.000329388
0.0021729
0.00210969
0.00210795
0.00208224
0.00219295
0.00206279
0.00219579
0.00210355
0.00164898
0.00214815
0.00167207
0.00213916
0.00218686
0.00213913
0.00193336
0.00214316
0.00214464
0.0021381
0.00162379
0.00208059
0.000125278
0.00172245
0.00217138
0.00199704
0.00213942
0.00216317
0.00175046
0.00167358
0.00219551
0.0021922
0.00186183
0.00204667
0.00211434
0.00195145
0.00223321
0.0022065
0.00215501
0.00217494
0.00219065
0.0021553
0.00197374
0.0021773
0.00202446
0.00217042
0.00201971
0.00216227
0.00216661
0.00178264
0.00017751
0.00204132
0.00141106
0.000412246
0.0021742
0.00217088
0.00217657
0.0020619
0.00219542
0.0019227
0.00215342
0.000192614
0.0020647
0.0021596
0.000172853
0.00205221
0.000123592
0.00208967
0.00218027
0.00187738
0.00198252
0.00208817
0.00221841
0.00181844
0.00217206
0.00217087
0.00217435
0.00213576
0.00189893
0.00181167
0.00210811
0.00169408
0.002135
0.00218939
0.00163079
0.00217121
0.00214974
0.00215304
0.00204681
0.00219381
0.00215522
0.00193483
0.00212409
0.00213595
0.00215033
0.00216754
0.00171
0.00161092
0.00197442
0.00223662
0.002168
0.00196294
0.00214036
0.00198828
0.00172647
0.00194322
0.0021586
0.00216282
0.00209153
0.00214081
0.0019833
0.00192759
0.00217368
0.00203376
0.00208341
0.00219337
0.00220395
0.00206533
0.00175892
0.00214611
0.00203471
0.00218703
0.00217571
0.00206423
0.00203148
0.00217586
0.00216743
0.00206905
0.00215113
0.00210023
0.00216206
0.00209609
0.000161421
0.00175939
0.00183348
0.00217116
0.00209706
0.00215049
0.00202088
0.00190073
0.00176135
0.00190925
0.00202846
0.00214999
0.00173811
0.0017982
0.00211835
0.00221554
0.00187688
0.00216214
0.00196715
0.00219251
0.00221398
0.00214469
0.00218188
0.00214283
0.00197592
0.00215229
0.00215021
0.00216836
0.00213537
0.00213631
0.00207626
0.0021505
0.0021269
0.00222666
0.00214333
0.00214268
0.00214355
0.00182873
0.00216298
0.00192304
0.00185481
0.00160732
0.00207908
0.00178722
0.00218346
0.00214817
0.00196353
0.00188967
0.00218917
0.00194783
0.00214319
0.0018987
0.00216612
0.00215104
0.000421343
0.00215878
0.00196935
0.00215116
0.00034266
0.00216807
0.00202749
0.00141705
0.00202651
0.00186307
0.0018466
0.00217276
0.00218545
0.00216729
0.00206723
0.00214653
0.000342882
0.000342493
0.00215333
0.00216697
0.00218361
0.00212784
0.00214455
0.00201723
0.00183841
0.00209432
0.00188992
0.000346947
0.00215435
0.00137665
0.00188269
0.00215891
0.00213274
0.00215252
0.00205712
0.0021221
0.000161274
0.000166238
0.00222309
0.00205039
0.00214976
0.00205155
0.00181925
0.00215338
0.00216155
0.00195882
0.00216716
0.00204835
0.00201276
0.00207096
0.00215005
0.00190391
0.000339167
0.00180705
0.00214832
0.00211535
0.00218522
0.00198747
0.00188664
0.00215209
0.00201074
0.00196166
0.0018576
0.0020425
0.00215814
0.000190051
0.00180342
0.00190286
0.00211238
0.00035531
0.00215392
0.00207723
0.000342063
0.000240371
0.00214515
0.00195273
0.00218283
0.00213529
0.00216354
0.00208992
0.00206322
0.00211221
0.00190414
0.00216146
0.00216382
0.000205491
0.000362181
0.00215151
0.000278386
0.00193935
0.00216299
0.00185015
0.00210056
0.00209733
0.00189263
0.00187215
0.00198093
0.00221529
0.00213135
0.00214656
0.00160975
0.00201638
0.00211919
0.00211004
0.00187192
0.00216939
0.00189496
0.0021525
0.00190577
0.000435955
0.00212185
0.00215738
0.00215555
0.000368223
0.00179713
0.00215491
0.00153702
0.000332819
0.00211723
0.00174229
0.0021531
0.00176966
0.00194045
0.00210507
0.0021725
0.00214401
0.00195322
0.00211091
0.00183747
0.00215176
0.00180578
0.00181736
0.00210496
0.00191174
0.00213176
0.00204738
0.0021622
0.00205263
0.00182468
0.00212515
0.00211355
0.00199558
9.67757e-05
9.43839e-05
0.00215621
0.00214862
0.0019655
0.00190363
0.00217182
0.00205074
0.0019078
0.00138603
0.000373296
0.00199206
0.00212288
0.0021592
0.0020362
0.00210235
0.00208966
0.00211141
0.00193473
0.00210327
0.00196115
0.0021278
0.00209119
0.00210942
0.00190401
0.00185929
0.00216371
0.0019998
0.00213935
0.00185886
0.000165437
0.00215557
0.00175024
0.00208812
0.00178355
0.00206532
0.000347565
0.00194309
0.00170955
0.000460473
0.00214025
0.00207697
0.00186587
0.000206578
0.00173891
0.00211647
0.00200607
0.00185085
0.0019334
0.00196548
0.00204274
0.00214996
0.00193587
0.00197456
0.00185187
0.00184026
0.00214426
0.00215831
0.00214722
0.00185931
0.00201066
0.0014046
0.00205649
0.00203139
0.000440793
0.00207341
0.000377649
0.00214711
0.00212626
0.00210627
0.00214082
0.00202291
0.0019776
0.00206058
0.00173742
0.00210268
0.00195681
0.00204032
0.00211435
0.00214568
0.00201718
0.000162875
0.00214974
0.00211593
0.00170936
0.00214759
0.002007
0.00181392
0.0020505
0.00016367
0.00192385
0.00204554
0.00207973
0.00016545
0.00136644
0.00211044
0.00197472
0.00204596
0.00188906
0.00201702
0.00210169
0.000267505
0.00201987
0.0019928
0.00199997
0.00200183
0.00213038
0.000162267
0.00201107
0.00198076
0.00183595
0.00205009
0.00214894
0.00184214
0.00213232
0.00214267
0.00202503
0.0019243
0.00204331
0.00214857
0.000163746
0.000170277
0.00186632
0.00187731
0.00190362
0.000204107
0.00210039
0.00198548
0.000348797
0.00204318
0.00202004
0.00202573
0.00208079
0.00025991
0.000173821
0.00188167
0.00204436
0.000381849
9.86135e-05
0.000100894
0.00193835
0.0017686
0.00187571
0.00190385
0.00212967
0.00211839
0.00213251
0.00197943
0.00210853
0.00209901
0.000140332
0.0021187
0.000154154
0.000161501
0.00214502
0.00202613
0.00167133
0.000177368
0.00213516
0.00186431
0.00212635
0.000521636
0.00193482
0.000530422
0.0020453
0.000448927
0.00177205
0.00158542
0.000517149
0.00211065
0.000372146
0.00197254
0.00210144
0.000328845
0.000461496
0.00186721
0.000426735
0.00191674
0.000267243
0.000426012
0.00200895
0.00143542
0.00185204
0.00187732
0.000244422
0.000180312
0.000435192
0.00213184
0.002002
0.00203817
0.00212918
0.00189055
0.00209656
0.00190001
0.00204097
0.00220446
0.00209383
0.000511304
0.00189686
0.00152965
0.00196698
0.0019061
0.00212087
0.00201628
0.00208565
0.00021125
0.00164882
0.000444168
0.00208716
0.00202318
0.00209291
0.00201188
0.00196044
0.00191572
0.00185511
0.00203481
0.000182773
0.00189723
0.00203414
0.00194521
0.000397576
0.00182517
0.00183973
0.00189755
0.00201802
0.00203652
0.000500619
0.002104
0.00210687
0.000489487
0.00195592
0.00211353
0.000374669
0.00186275
0.00195654
0.00209243
0.000450659
0.0018714
0.00211099
0.00210396
0.000487432
0.00208232
0.00200312
0.00186827
0.00203191
0.000153709
0.00210167
0.00180181
0.00210855
0.00212146
0.00208215
0.00186996
0.00167643
0.00210026
0.00156522
0.00212038
0.00194222
0.00194954
0.000166912
0.000402302
0.000397195
0.00018491
0.00207951
0.000363946
0.00206331
0.00184226
0.00155928
0.000457341
0.00021759
0.00132506
0.00203319
0.00196422
0.0020306
0.0016591
0.00187601
0.00188597
0.00049136
0.0019466
0.00193429
0.00202439
0.00207798
0.00182889
0.00206381
0.00207527
0.00195484
0.00180958
0.000454895
0.00202776
0.00207585
0.00179384
0.00207573
0.00151774
0.000259123
0.00188653
0.00032031
0.000264375
0.00194005
0.000264959
0.00201936
0.00201358
0.000244995
0.00194047
0.000395285
0.00021917
0.00200672
0.0017757
0.000494939
0.000212035
0.000215117
0.00207335
0.00221382
0.00200261
0.00199965
0.00199554
0.00203481
0.00186066
0.00189755
0.000132825
0.000143519
0.000219872
0.00205018
0.00182894
0.00193689
0.000404704
0.002034
0.000349027
0.000403228
0.00203687
0.00193053
0.00040422
0.000490751
0.00200643
0.00147368
0.00022373
0.000404463
0.00193349
0.000223029
0.0017522
0.00197702
0.00191633
0.00184989
0.002035
0.00025407
0.000248355
0.00181748
0.00192758
0.000245965
0.00206501
0.00045719
0.00197371
0.00198814
0.000157261
0.000196303
0.000197495
0.000392958
0.0019821
0.00177053
0.00207051
0.00190525
0.00191977
0.0020668
0.00172871
0.0020136
0.00208146
0.00198991
0.000246838
0.00203036
0.0017522
0.00204675
0.000475348
0.00193288
0.000226357
0.00208256
0.00189285
0.000138625
0.000308398
0.00186048
0.00198913
0.00189005
0.00178883
0.000196354
0.00179711
0.000146415
0.000465262
0.000374769
0.00187921
0.00202839
0.00198178
0.00197051
0.00194099
0.00177571
0.000402846
0.00201104
0.000178601
0.000182611
0.00178656
0.000248454
0.00181593
0.00037433
0.00192835
0.00200256
0.00197246
0.00197023
0.00180459
0.00186555
0.0014087
0.00203314
0.000227936
0.000247118
0.0019312
0.000199265
0.000228
0.00197564
0.00175866
0.00177412
0.000199118
0.00192106
0.000195428
0.000390399
0.0020253
0.00200918
0.000199454
0.000373451
0.00196857
0.000199503
0.00206208
0.00175321
0.00013092
0.00184748
0.00184159
0.001837
0.000374182
0.00194289
0.00197415
0.000239753
0.000241315
0.00197442
0.00138076
0.0018063
0.00191476
0.00181478
0.00189862
0.00173435
0.00178533
0.000198438
0.00182506
0.00193835
0.00191994
0.00190572
0.00185977
0.00169679
0.000318826
0.000131661
0.00171647
0.0019694
0.00171983
0.00195134
0.00208937
0.000385055
0.000194308
0.00188517
0.00183366
0.000383123
0.00191548
0.000457492
0.00022851
0.00169609
0.00177182
0.00186172
0.00190642
0.000180571
0.000179176
0.00196617
0.000371204
0.000385995
0.00037958
0.00165701
0.00200003
0.00178133
0.00182568
0.00186305
0.000284465
0.000118208
0.00192915
0.00163599
0.00176339
0.000399139
0.000196637
0.00187771
0.00184539
0.00179602
0.0017711
0.00190225
0.00167117
0.00184901
0.000373832
0.000176541
0.0018128
0.000373917
0.00193773
0.000188766
0.00165064
0.000190439
0.000388062
0.000193147
0.0017599
0.000181214
0.00181966
0.000367002
0.00175106
0.00181173
0.000186056
0.000365094
0.00166394
0.000450558
0.000442137
0.000222375
0.00179018
0.000232493
0.00173708
0.000181777
0.00153135
0.00175649
0.00157862
0.000171988
0.000187965
0.000392447
0.000381655
0.000386476
0.000359509
0.000191479
0.00017496
0.0015905
0.00167917
0.00168253
0.00185923
0.000163915
0.00016263
0.00035105
0.00154668
0.00161794
0.00154713
0.0018089
0.00176994
0.00168354
0.00174892
0.000147254
0.000335773
0.00166864
0.000181611
0.000316772
0.00013101
0.000295077
0.00145188
0.00153021
0.000106211
0.000222867
9.66377e-05
8.74213e-05
0.000261768
0.000124775
0.000208451
0.000412488
0.000192187
0.00042958
0.000216634
0.000226022
0.00039042
0.000197558
0.000227954
0.00045546
0.000348333
0.000155542
0.00019337
0.000143178
0.000331639
0.000168295
0.000366267
0.000116175
0.000124548
0.000136542
0.00032416
0.000164295
0.000183324
0.00036181
0.000179634
0.00144056
0.00204379
0.00159755
0.00171718
0.00165846
0.000474928
0.000237283
0.00188049
0.00160329
0.00177641
0.000237711
0.00197207
0.0022081
0.00142184
0.00194205
0.000476052
0.000283807
0.00206734
0.00183583
0.000152407
0.000235257
0.000153987
0.00221434
0.00125139
0.00190338
0.00221551
0.000161109
0.00135316
0.00212582
0.00190145
0.000128007
0.000126429
0.000150454
0.000129708
0.000175439
0.000126913
0.000141487
0.000134992
0.00185543
0.000347752
0.00178436
9.99094e-05
8.22643e-05
9.32762e-05
0.000351351
0.0021231
0.0022043
0.000112965
8.31281e-05
8.68898e-05
0.00183336
0.00188139
0.000266099
0.00153762
0.00206338
0.00136319
0.00124807
0.000287532
0.000121192
0.000401586
0.000265844
0.000418307
0.000286411
0.000266425
0.000273581
8.82821e-05
8.71176e-05
0.00182976
0.00214377
0.00121048
0.00208495
0.000155027
0.000219271
0.000218239
0.00118295
0.00133651
0.000232749
0.00213558
0.00121086
0.00141361
0.00139329
9.1967e-05
0.00131146
0.00129317
0.00122608
0.000249146
0.0021803
0.00126361
0.00215999
0.000148188
0.00130593
0.00221318
0.00125097
0.000192607
0.000122857
0.00149502
0.00216765
0.00222087
0.00123926
0.00118478
0.000104425
0.00219335
0.00217823
0.00124844
0.00219381
0.00218254
0.000257702
0.00218264
0.00220112
0.00148102
0.00219637
0.00150782
0.0013441
0.00132345
7.95813e-05
0.00217803
0.000230688
0.000108522
0.00221624
)
;

boundaryField
{
    patch0
    {
        type            nutkWallFunction;
        Cmu             0.09;
        kappa           0.41;
        E               9.8;
        value           nonuniform List<scalar> 
4010
(
0.000167717
0.000167717
0.000214497
0.000214497
0.000245938
0.000245938
0.000247408
0.000247408
0.000216092
0.000216092
0.000249982
0.000249982
0.000250148
0.000250148
0.000252359
0.000252359
0.000252216
0.000252216
0.000241403
0.000241403
0.000253997
0.000253997
0.000253873
0.000253873
0.000163326
0.000163326
0.000255877
0.000255877
0.000255415
0.000255415
0.000255023
0.000255023
0.000173218
0.000173218
0.000255851
0.000255851
0.000158426
0.000158426
0.000256854
0.000256854
0.000142363
0.000142363
0.00026026
0.00026026
0.00019746
0.00019746
0.000256645
0.000256645
0.000261382
0.000261382
0.000263745
0.000263745
0.000263191
0.000263191
0.000226399
0.000226399
0.000216738
0.000216738
0.000223553
0.000223553
0.00019835
0.00019835
0.000263056
0.000263056
0.000197665
0.000197665
0.000188172
0.000188172
0.000231323
0.000231323
0.00020262
0.00020262
0.000262991
0.000262991
0.000219743
0.000219743
0.000218919
0.000218919
0.000195369
0.000195369
0.00026337
0.00026337
0.000149978
0.000149978
0.000264086
0.000264086
0.000178078
0.000178078
0.000231173
0.000231173
0.000224976
0.000224976
0.000157914
0.000157914
0.000240553
0.000240553
0.000120184
0.000120184
0.000126999
0.000126999
0.000149683
0.000149683
0.000157322
0.000157322
0.000254794
0.000254794
0.000139134
0.000139134
0.000228889
0.000228889
0.000241476
0.000241476
0.000155771
0.000155771
0.000233803
0.000233803
0.000214389
0.000214389
0.000252042
0.000252042
0.00017531
0.00017531
0.000254688
0.000254688
0.000167753
0.000167753
0.000216333
0.000216333
0.000143366
0.000143366
0.000242258
0.000242258
0.000253599
0.000253599
0.000206736
0.000206736
0.000223999
0.000223999
0.000150057
0.000150057
0.000140114
0.000140114
0.000254193
0.000254193
0.000216293
0.000216293
0.00022823
0.00022823
0.000228287
0.000228287
0.000181576
0.000181576
0.000244014
0.000244014
0.000232234
0.000232234
0.000240381
0.000240381
0.000164814
0.000164814
0.000248597
0.000248597
0.000262267
0.000262267
0.000231344
0.000231344
0.000141709
0.000141709
0.000197924
0.000197924
0.000203353
0.000203353
0.000229639
0.000229639
0.000255582
0.000255582
0.000120013
0.000120013
0.000137524
0.000137524
0.000255138
0.000255138
0.000260691
0.000260691
0.000228746
0.000228746
0.000235403
0.000235403
0.000147265
0.000147265
0.000177943
0.000177943
0.000245433
0.000245433
0.000250126
0.000250126
0.000254542
0.000254542
0.000171548
0.000171548
0.000244256
0.000244256
0.000147059
0.000147059
0.000258371
0.000258371
0.000254402
0.000254402
0.0002352
0.0002352
0.000238413
0.000238413
0.000241606
0.000241606
0.000236301
0.000236301
0.000217724
0.000217724
0.000234276
0.000234276
0.000246677
0.000246677
0.000227949
0.000227949
0.000219198
0.000219198
0.000229033
0.000229033
0.000240236
0.000240236
0.000132677
0.000132677
0.000246022
0.000246022
0.000254738
0.000254738
0.00020554
0.00020554
0.000242959
0.000242959
0.000155925
0.000155925
5.27883e-05
5.27883e-05
0.000132691
0.000132691
0.000127393
0.000127393
0.000253936
0.000253936
0.000243316
0.000243316
0.000188488
0.000188488
0.00023199
0.00023199
0.000234442
0.000234442
5.76086e-05
5.76086e-05
0.000246301
0.000246301
0.000244484
0.000244484
2.31339e-05
2.31339e-05
0.000231606
0.000231606
0.000157568
0.000157568
0.000240778
0.000240778
0.000230406
0.000230406
0.000229316
0.000229316
0.000244405
0.000244405
0.000229816
0.000229816
0.000241153
0.000241153
0.000253678
0.000253678
1.43236e-05
1.43236e-05
1.43236e-05
1.86373e-05
1.86373e-05
1.86373e-05
0.000250159
0.000250159
0.000163824
0.000163824
0.000239994
0.000239994
0.000163965
0.000163965
0.000214307
0.000214307
0.000209846
0.000209846
0.000227419
0.000227419
2.80175e-05
2.80175e-05
2.80175e-05
0.000181131
0.000181131
0.000249741
0.000249741
0.00025078
0.00025078
0.000244928
0.000244928
5.27655e-05
5.27655e-05
0.000238394
0.000238394
0.000248278
0.000248278
2.64593e-05
2.64593e-05
0.000228066
0.000228066
0.000182872
0.000182872
0.000250711
0.000250711
5.36211e-05
5.36211e-05
0.000201659
0.000201659
0.000242799
0.000242799
0.000249371
0.000249371
4.05796e-05
4.05796e-05
0.00024244
0.00024244
0.000241133
0.000241133
0.000209753
0.000209753
0.000253327
0.000253327
0.000237476
0.000237476
0.000243908
0.000243908
0.000242874
0.000242874
0.000234385
0.000234385
0.00022459
0.00022459
3.41688e-05
3.41688e-05
0.000201429
0.000201429
0.000253943
0.000253943
0.000252183
0.000252183
0.000245585
0.000245585
0.000235851
0.000235851
0.000248129
0.000248129
0.000118676
0.000118676
0.000205759
0.000205759
0.000187232
0.000187232
0.000257014
0.000257014
0.00024478
0.00024478
0.000232324
0.000232324
0.000241085
0.000241085
0.000253377
0.000253377
0.000248115
0.000248115
0.00025412
0.00025412
0.000253417
0.000253417
2.85291e-05
2.85291e-05
2.85291e-05
0.0002597
0.0002597
0.000240498
0.000240498
0.000241996
0.000241996
0.000216812
0.000216812
3.98052e-05
3.98052e-05
0.00021562
0.00021562
0.000247349
0.000247349
0.000255201
0.000255201
0.000216396
0.000216396
0.000251711
0.000251711
0.000256079
0.000256079
0.000181028
0.000181028
0.000170594
0.000170594
1.4733e-05
1.4733e-05
1.4733e-05
5.47113e-05
5.47113e-05
0.000242786
0.000242786
0.000222148
0.000222148
0.000255168
0.000255168
0.000258031
0.000258031
0.000236346
0.000236346
0.000213896
0.000213896
0.000237035
0.000237035
0.000255997
0.000255997
0.0002299
0.0002299
0.000240654
0.000240654
0.000232248
0.000232248
0.00024968
0.00024968
0.000221979
0.000221979
0.000255113
0.000255113
0.000260425
0.000260425
0.000250047
0.000250047
0.000242217
0.000242217
0.000257685
0.000257685
0.000226529
0.000226529
3.37488e-05
3.37488e-05
0.000247818
0.000247818
0.000249325
0.000249325
3.58631e-05
3.58631e-05
0.000261034
0.000261034
1.83976e-05
1.83976e-05
1.83976e-05
0.000222023
0.000222023
0.00025753
0.00025753
0.000252697
0.000252697
2.90885e-05
2.90885e-05
2.90885e-05
0.000224384
0.000224384
0.000251929
0.000251929
0.000222075
0.000222075
0.000187202
0.000187202
3.10074e-05
3.10074e-05
0.000159464
0.000159464
0.000256817
0.000256817
0.00024569
0.00024569
0.000235219
0.000235219
0.000239061
0.000239061
0.000164211
0.000164211
4.85232e-05
4.85232e-05
0.000258362
0.000258362
0.000247499
0.000247499
0.000244398
0.000244398
0.000232896
0.000232896
0.000262968
0.000262968
0.000257161
0.000257161
0.000240583
0.000240583
0.000257395
0.000257395
0.000247281
0.000247281
0.000254629
0.000254629
0.00024258
0.00024258
0.000237491
0.000237491
0.000263395
0.000263395
0.000224251
0.000224251
0.000145465
0.000145465
0.000234293
0.000234293
0.000221052
0.000221052
3.53319e-05
3.53319e-05
0.000240609
0.000240609
0.000226848
0.000226848
0.000216732
0.000216732
0.000260022
0.000260022
0.00024426
0.00024426
0.000248484
0.000248484
0.000256716
0.000256716
0.00026152
0.00026152
0.000249693
0.000249693
0.000243945
0.000243945
4.23878e-05
4.23878e-05
2.1761e-05
2.1761e-05
2.1761e-05
0.000256044
0.000256044
0.00025929
0.00025929
0.000151022
0.000151022
0.000231657
0.000231657
0.000250027
0.000250027
4.9763e-05
4.9763e-05
0.000258271
0.000258271
0.000256584
0.000256584
0.000256266
0.000256266
0.000218212
0.000218212
0.000261336
0.000261336
0.000222004
0.000222004
0.000127148
0.000127148
0.000202792
0.000202792
0.000256081
0.000256081
0.000186985
0.000186985
0.000230739
0.000230739
0.000244675
0.000244675
3.02723e-05
3.02723e-05
3.02723e-05
0.000252728
0.000252728
0.000221642
0.000221642
0.000246421
0.000246421
0.00025773
0.00025773
0.000262012
0.000262012
0.000152062
0.000152062
0.00023044
0.00023044
0.000258498
0.000258498
0.000235944
0.000235944
0.000165502
0.000165502
0.00020559
0.00020559
0.000259774
0.000259774
0.000254441
0.000254441
0.000246825
0.000246825
0.000160028
0.000160028
0.000252443
0.000252443
0.000257883
0.000257883
0.000257473
0.000257473
0.000255663
0.000255663
0.000220239
0.000220239
0.000242338
0.000242338
0.000254262
0.000254262
0.00021795
0.00021795
0.000262934