/*--------------------------------*- C++ -*----------------------------------*\
  =========                 |
  \\      /  F ield         | OpenFOAM: The Open Source CFD Toolbox
   \\    /   O peration     | Website:  https://openfoam.org
    \\  /    A nd           | Version:  8
     \\/     M anipulation  |
\*---------------------------------------------------------------------------*/
FoamFile
{
    version     2.0;
    format      ascii;
    class       surfaceScalarField;
    location    "0.6";
    object      phi;
}
// * * * * * * * * * * * * * * * * * * * * * * * * * * * * * * * * * * * * * //

dimensions      [0 3 -1 0 0 0 0];

internalField   nonuniform List<scalar> 
2805
(
-0.000143856
1.59537e-05
0.000127902
-7.20216e-05
-7.1834e-05
-0.00182802
-1.17871e-05
0.00183981
-0.000408462
-0.00141956
-0.000191262
0.000119241
-0.00232078
0.00191232
-0.000683653
-0.00163713
-0.00274474
0.00206109
-0.0010667
-0.00167805
-0.00138491
0.00137312
-0.00336379
0.00229709
-0.00084637
-0.00251742
0.000277022
-0.000342054
6.50315e-05
-0.00333736
0.00249099
-0.00209962
0.00220845
-0.000108832
-0.000498234
-0.00160138
0.000712695
-0.000435672
-0.00162726
-0.00171009
5.42743e-05
-3.83206e-05
-0.00287944
0.00125217
5.04825e-05
0.000261682
-0.000312165
0.00179165
0.00168708
-0.00347873
-0.000995846
0.000369701
0.000626145
-0.00183513
-0.00104431
-0.0016083
0.00339995
-0.00458716
0.00274961
0.00183755
-0.00301185
-0.00157531
0.000617035
-0.000802174
0.000185139
-0.000718333
0.00111718
-0.000398844
-0.000735557
0.000489198
0.000246359
-0.000605059
-0.000390788
-0.00445444
0.00284614
-2.20487e-05
0.000647652
-0.000625603
6.18777e-05
0.000650817
-0.00052724
0.00114427
-0.00122059
0.00159029
-0.00255394
-0.0019005
-0.000879226
0.000160894
-0.000921563
0.000186005
-0.000543181
0.0015284
-0.00408234
0.00020526
-0.000154777
0.004278
0.00113317
-0.000507025
0.000682324
-0.000115758
-0.000566566
-0.000735606
0.00106848
-0.000332878
9.76566e-07
-7.65066e-05
7.55301e-05
-0.000209552
0.00151644
-0.00130689
0.000269076
-0.000577746
0.00030867
-0.000330842
-4.37633e-05
0.000374605
-7.70631e-05
-0.00135677
0.00143384
-0.000136794
-0.000889888
0.00257696
0.00112479
-0.00120185
-0.000719551
0.000502189
0.000217362
-0.00191215
5.52509e-05
0.000472772
0.000547339
-7.45667e-05
0.00113636
0.000381709
-0.00151807
0.000480885
0.000652285
-0.00189111
0.00139288
0.000993809
-0.000512924
0.00148283
-0.0016766
0.000193773
-0.000657361
0.00178215
-7.11632e-05
0.00158761
0.000488339
0.000944475
-0.00143281
-0.00011791
-0.00110268
0.000381571
-0.000236428
-0.00112035
0.000504661
-4.71239e-05
-0.000457537
-0.00104457
-0.000846544
0.000561267
-0.000260462
0.00074966
0.000220405
-0.000480867
0.000214619
-0.000271218
5.65991e-05
0.00120321
-0.00127437
-0.000450521
0.000670926
-0.00101482
-0.000292072
0.000757381
0.00122471
-0.0018384
0.000613687
-0.000228552
-0.0027833
-0.000706793
0.00010019
0.000606603
0.000289656
-2.79736e-05
0.000105853
0.00103381
-0.00115172
-0.000254835
0.000660837
0.00154761
-6.17664e-05
0.000722565
-0.000217904
6.57348e-05
0.000422605
-0.00303483
0.00280627
0.000348933
0.00188077
-0.00178215
-9.86209e-05
0.000268225
0.000454339
0.000528945
-0.00118631
-0.000302727
0.00150594
0.00203221
-0.000807498
-0.000506436
0.0016428
3.95251e-05
0.000175094
-0.00195138
0.00200983
-5.84469e-05
0.000557881
-0.00134258
0.000836147
-0.001282
-0.00175282
0.00172196
0.000158814
-0.00127078
0.000452529
0.000818254
-0.00195418
-0.000193473
0.00214765
0.00142191
0.000300042
-0.00150766
0.00188937
-0.00143322
-0.00150779
0.00120506
0.00173745
-0.00135588
-0.00107049
0.000804381
-0.000652322
-0.000152059
-8.12774e-05
-0.000933542
0.000127044
-0.000155018
-0.000111571
0.000477557
-0.00207894
0.00189121
0.00112888
-0.00302009
-0.00135565
0.000243341
-0.000137488
-0.000881708
0.000864079
1.76289e-05
-0.000355928
-9.086e-05
0.00127045
-0.000325976
7.60357e-05
0.00226905
-0.00234509
-3.96812e-06
-0.00026725
0.000448529
-0.00089905
0.000304236
-0.000266027
0.000693328
-0.0004273
-0.00025584
-0.00125195
5.56497e-05
-2.92756e-05
-1.39835e-05
4.32591e-05
9.75878e-05
0.000421087
0.00216394
-0.00200512
0.00154935
-0.00138846
-0.000177903
-0.00165722
7.37857e-05
0.00133277
0.00022588
-0.000153329
0.000153329
0.000580619
-0.000580619
-0.00223954
0.00212797
-0.000445561
0.000179533
0.00149795
-7.59876e-06
6.70128e-05
-0.00157467
0.00336837
-0.00147716
-0.00024888
0.00034907
-0.000881708
-0.0001256
0.000121631
-0.00227383
0.00232948
-0.000327214
3.93144e-05
0.00222974
0.000788436
7.56426e-05
-0.00144691
-0.00151832
0.00126248
-0.000496577
0.00049638
1.9642e-07
-0.000807184
0.000154862
2.73236e-05
-0.000145869
-0.000877301
-4.40699e-06
-0.000292037
0.000523119
-0.000231082
-0.000181153
0.00264899
-0.00260967
0.000270207
0.00051823
-0.000307378
-0.00104827
-0.00170088
0.000279603
0.000368048
-0.00263009
0.00230287
-0.000661501
-0.000609282
0.000360795
-0.000579378
0.00106897
-0.00130511
0.000236136
-0.000560825
-0.00016111
-0.000296427
0.00121613
0.000374158
-0.00263509
0.00248922
0.00260519
0.000138868
-0.00274406
-0.00186483
0.00234239
-0.000860258
-5.92038e-05
0.000919461
-4.17265e-05
0.00269071
-0.000190258
-0.000387488
-0.000113306
3.6799e-05
0.000203836
-0.000329435
0.000185683
0.0028413
-0.00302698
-0.00155933
-0.000690456
0.000845318
0.00109695
0.000401003
-0.000568996
-0.000285956
-0.00123237
-0.000332213
0.00273578
-0.0027775
-0.000877301
0.000287551
0.00275731
-0.00304486
-0.000170897
0.00123987
0.00199941
-0.0021703
0.000571966
0.000667904
-4.49838e-05
0.00173261
-0.00191376
0.00254593
-0.00311492
0.00279088
-0.00304025
0.00270804
0.000200665
3.17111e-06
0.000114033
-1.39835e-05
-0.00089087
1.35691e-05
0.000446768
-0.00175246
-0.000340515
0.00209297
-0.000169525
0.0029053
0.00312885
0.000901058
-0.00198251
0.00204952
-0.000208162
-0.000494326
-0.000547088
-0.000351962
0.00202158
0.000110026
-0.000877067
-0.00214488
0.000392425
-0.000817828
-0.000385333
0.00314265
-0.00164714
0.00136118
-3.75621e-06
-0.00090351
0.000907267
0.0027179
-0.00288743
0.00117114
-0.000599175
0.000545448
-4.32591e-05
-0.00116302
0.00021597
0.000947048
0.00213827
0.00252794
-0.00291328
0.00049638
0.00206154
-0.00240206
-0.00342985
0.00293552
0.00161532
-0.00249238
-0.00089087
0.000549288
-0.00241412
0.00232575
0.000465128
-0.000322534
0.00238408
0.000365779
-0.000165114
-0.000115562
-1.9641e-07
0.000568372
0.00285012
-0.00366795
0.000926559
-0.000189331
-0.000665257
-3.77677e-05
-0.0006123
-0.00027857
-0.000270477
0.00298838
-0.00146699
-0.000494045
-0.00106528
-0.00221327
6.83885e-05
-0.00166331
0.00350086
-0.00281418
0.00222858
0.000585607
-0.000148726
-0.000579729
0.00254199
-0.00116219
0.00153522
-0.00117442
0.000711727
-0.000625047
0.00347118
-6.29338e-05
-0.000417933
8.12734e-05
-0.000236051
6.24435e-05
-0.000671725
0.000244686
-7.77994e-05
0.000698921
0.00047222
-0.000540917
3.51708e-05
0.00057695
0.00262471
-0.00320166
-6.97764e-05
-0.00109324
-0.000582468
-0.00125593
-0.00117696
-0.000432581
0.00296052
0.000862493
0.0015391
0.000198357
-0.0006123
0.000281705
0.00268396
-0.00295444
-7.93191e-05
-5.81688e-05
-0.000499445
-0.00114769
-0.000693328
8.10273e-05
-0.00352165
0.00294192
-0.000488435
0.00156018
-0.00272236
-2.2808e-06
0.000188286
0.00214499
-0.00257757
-0.00249679
9.47303e-05
0.000219588
0.000211
0.000312119
-0.0022667
5.34321e-05
0.00024867
0.000117109
-0.000484645
-0.0024284
-0.00162989
0.00214703
-0.00246957
-0.000193869
-0.00178864
0.00261247
-0.00378943
0.000633403
0.00260439
-0.00323779
0.000181634
-0.000100361
-0.000270544
0.00241758
0.00280553
-0.00045654
0.000571543
0.00146833
0.00190004
-0.000239406
0.00292337
0.00319397
-0.000915494
-0.00227848
-0.00172641
0.000246666
-0.000202075
-0.000909177
-0.00132725
0.00270323
-6.52146e-05
0.00126796
-0.000569036
0.000859326
-8.36121e-05
0.000294612
0.00147794
-0.00305326
0.000320147
-0.00109171
0.000771566
0.00264041
0.00325811
-0.000493004
-0.00226338
0.00176394
0.00200423
-0.000511366
-0.000921448
0.00192882
0.00126515
-0.00253726
0.000193129
-0.000545091
-0.000425939
0.00257093
-0.00158785
0.00151798
-0.00284523
0.00254182
-0.00278122
-0.00186304
-0.000583363
-0.000692975
0.00387442
-0.000474467
0.000560716
-0.000312046
-3.31687e-05
-0.00223354
-0.0015549
0.000708353
-0.000125988
-0.000199988
0.00391152
-0.00244319
0.00487519
-0.000597188
-0.00084545
0.000614368
0.00251835
-0.00242362
0.00099263
0.000192423
-0.00085768
-0.000285129
0.000548533
-0.000263404
-0.00244749
0.00153832
0.00212111
0.000684418
0.000776854
-0.000247909
0.0014231
-0.00184904
-0.00235578
-7.26145e-05
4.87865e-05
-0.000917219
-0.000176022
0.00425014
0.000845003
0.00295892
0.00090364
0.000364317
-0.000100838
0.00264266
-0.00143645
0.00176976
-0.0020403
-0.000323756
0.00135762
-0.00201102
0.00256031
0.00429621
-0.00148994
0.000296427
-0.000387287
-0.00238895
-0.00234237
0.0040212
-0.00055002
0.000482121
-0.000608109
-0.00107278
-0.000479302
-0.000561245
0.00266462
0.00143519
-5.30403e-05
0.0018228
-0.000224804
-0.00142859
0.00263291
-0.00200023
0.00368861
-0.00175979
0.0025814
-0.000636572
-0.000284876
0.00236592
-0.00380237
0.00466061
-0.00115975
0.00354674
-0.00121612
-0.00104726
-0.00137059
-0.000238618
-0.000206943
0.000248072
-0.000732717
7.54367e-05
0.000485279
0.000146065
0.000270207
-0.00148667
-0.00010118
0.000854197
-0.00139793
0.000543734
-0.00083656
0.00406342
-0.00045506
0.00187816
0.00134058
0.00234804
-0.00124975
-0.00119774
0.00093529
0.00186625
-0.00196709
-0.00190915
0.00171528
0.000617733
-0.0012002
0.00247494
-0.00254756
0.00130754
-0.000653255
-0.000654281
0.000712057
5.13177e-05
0.00157183
-0.000668187
-0.000401732
0.00110974
0.00477729
-0.000527143
0.00220124
-0.00215245
-0.000703104
-0.00102331
-7.30588e-05
0.000261345
0.00411984
-0.00116092
0.00290831
-0.00137309
-0.00166269
-0.00047398
0.000714945
0.00400945
-0.00293341
-0.00107604
-0.000415304
0.00141837
0.000160934
0.000516225
-0.000255057
-0.000261168
-0.00286708
0.00422727
0.0020208
0.00414039
-0.00150748
-0.000380242
0.000893777
-0.000581658
-0.000392514
-0.000215595
0.000395535
-0.000850595
-0.000297019
-0.000656392
-0.00122862
-0.000199968
2.1489e-08
0.00236005
0.00254312
-0.00231054
0.00109442
0.00298063
0.00230413
0.00129486
-0.0013479
-0.00223414
-0.00015481
0.00288203
0.00112742
-0.00177599
0.000703216
0.000431202
-0.00101457
0.00438191
-0.00083517
-0.000143792
0.000390458
0.00140488
0.000734546
-0.000659109
-0.00151349
-0.000876541
3.99816e-05
-7.42661e-05
0.00194051
7.48372e-05
-0.000748612
0.00454882
-0.000485397
0.00415414
-0.00281357
0.000493736
-0.000558951
-0.000103073
0.000282885
0.00128894
-0.000426478
0.00070624
-0.000144973
-0.0016891
0.000439351
0.000613983
-0.0010065
-0.00213287
0.000762284
-0.00200936
0.00159406
-0.00167585
-0.00109214
0.00322099
0.00402168
0.00301673
-0.00159836
0.000619668
-0.00263069
0.00223464
-0.00151969
-0.0018508
0.000415864
0.000861545
0.00122073
-0.000925073
0.00220241
-0.0021511
0.000881325
-0.00128306
-0.00116201
-0.00157061
-9.20757e-05
0.00150925
3.84131e-05
-0.000122025
4.99645e-05
-0.00223412
0.00135261
0.00466629
-0.000439022
0.000674067
-0.000865141
-0.00104401
-0.00223042
-0.000317137
0.00377596
-0.000795322
0.00428002
-0.00191998
0.00146673
-0.0013058
0.000417675
-0.000896977
-0.000318876
-0.00177058
-0.000370152
-0.00149983
-1.36645e-05
-0.00145985
0.00383112
-0.000749123
-0.00193452
-0.00142965
0.00430411
-0.00317669
-0.00238523
0.000664477
-0.00113846
0.000118832
0.0022725
0.00182181
0.000469159
-0.000693962
-0.000455898
0.00110818
0.00329056
0.000660986
-0.000735252
-0.00304015
0.00444502
-0.00151556
-0.000173539
0.00146646
-0.000327307
0.00136111
0.000600511
0.000134034
-0.000753074
-0.000339063
-0.00037303
-0.00114714
0.00143002
0.00412459
-0.000102914
0.00450755
-0.00128656
-0.000727002
0.000765415
-0.000292926
0.00105031
-0.000315042
0.0011453
-0.00124838
0.00244999
-0.00158845
-0.000434317
0.000361258
-0.0012983
-0.000378298
-0.000839292
-0.000167205
-0.000705233
-0.00160531
0.00085163
-0.00171934
4.34936e-05
-0.00165184
0.00432497
-0.00310424
0.00277269
-0.00126344
0.000980228
0.000760234
0.00131285
0.000120989
-0.00080322
0.000681194
0.000967585
0.00368557
0.00126396
-0.000121185
-0.00181142
0.00203703
-0.00180497
-0.000350088
0.000337409
5.94194e-05
0.00258757
-0.000137754
0.000529828
0.00197737
-0.00164933
-0.000121253
0.000546866
-0.000843885
-0.000642442
-0.000817405
-0.000763891
0.00113805
0.00115935
0.00138433
-0.00133437
0.00191611
-0.000787235
0.00459717
-0.000766052
-0.00207587
0.000913858
-0.000396207
-0.00166299
0.000280188
0.00150196
0.000815258
-0.001901
-0.000250091
0.00110552
0.002806
0.000893474
-0.00121235
-0.000398363
0.00338063
-9.00667e-05
0.00114828
0.000116046
-0.000193845
0.00159304
0.0011713
7.85367e-05
-0.00139552
-0.00142667
0.00040336
-0.00117836
0.00343013
0.0010149
0.00152043
-0.000743575
-0.00221814
-0.000121503
0.000782489
0.00118792
-0.00248622
0.00437365
-0.00290719
-0.000854725
-0.000961489
0.000598619
-0.0010251
-0.000769556
-0.00103542
-0.00280465
0.00391017
0.00327771
0.000326188
0.000597224
-0.000984944
-0.000865854
0.00331061
0.000957104
-0.00112431
-0.000305068
0.000540829
5.96824e-05
-0.000208977
0.00171094
-0.000524875
0.000146577
0.00125139
-0.00113256
-0.000244983
-0.00134064
0.00392785
-0.000242278
-0.000853917
0.000480887
-8.97919e-05
-0.000546823
0.00130706
-0.00111876
0.000916675
-0.000646873
0.0016271
-0.00235528
0.000925621
0.00224521
-0.00139358
-0.000519399
0.000986935
0.00126941
0.00131145
0.00098177
9.05573e-05
-0.00214784
0.000559391
3.01601e-06
-0.00174515
-0.00153665
-0.000274774
0.00451405
-0.00192648
0.00247851
-0.000501145
-0.00165169
0.000786551
-0.00237408
-1.11455e-05
0.0031618
-0.0018931
0.00251277
-0.00161801
0.00486782
-0.00360385
-0.0016579
0.00163545
0.000591225
-0.000669396
-0.000993598
-0.0033742
0.0043891
-0.000298358
0.00238845
0.00126924
-0.00144152
-0.000465116
0.00128037
-0.000147097
0.00108528
-0.00122304
-0.0014868
0.00104295
0.00313954
0.00013817
-0.00144142
0.00450287
-0.00335459
0.00160685
0.00447244
-0.00116182
0.000772695
-0.00112278
0.000122466
0.000293398
-0.00204789
-0.000127066
-0.00125012
-0.00254007
0.000888228
-0.000162508
0.00133381
-0.000803609
0.00140083
-0.00118161
-0.000152762
-0.0014317
-0.00147828
0.00035397
0.000374284
-0.00155264
0.00289727
-0.000254365
0.000353121
-0.00174864
0.000237817
-7.89989e-05
-0.000158818
0.00116434
-0.00108581
0.00084194
-0.000959188
0.000301102
2.05433e-05
0.00196045
-0.000978682
0.00149362
-0.0019179
-0.000300242
0.000823492
0.000662717
-0.000977759
0.00254596
0.00383447
-0.000672671
0.000940275
-0.00118526
-0.00264662
0.00363356
-0.00195542
0.000561843
0.000616165
0.000166355
0.00142668
-0.00139603
-0.00131126
-0.000433884
0.00145931
3.17822e-05
0.00421863
-0.00294922
0.00089902
0.00111787
-0.00158604
0.000125602
0.000112216
0.00225714
0.000131302
-0.00044964
-0.00120826
0.00352596
0.000863135
-0.00192905
0.000180862
-0.000260181
-0.000181167
-0.00247249
0.00135373
-0.000252401
-0.00117496
0.00176619
-0.00161445
0.000387287
-0.000167699
0.000123678
0.00158726
-0.000202438
0.000743267
0.00118831
-0.00118529
-0.00144324
0.00316928
-0.000469177
0.000276646
0.000192531
0.00267264
-0.001104
0.00239531
-0.00119952
9.7267e-05
0.00143432
-0.00108035
0.000879337
0.00150016
0.000459041
-0.00194584
-0.000182509
-0.00387622
0.00201149
0.00186473
-0.00249688
-0.000614368
3.27095e-05
0.00414209
-0.00253523
0.00022587
0.000864035
-3.47276e-05
0.00320867
-0.000311406
-0.00187039
0.000218701
-0.000810772
0.000994052
-0.00117064
0.000176585
-0.000213598
-0.000641678
0.00100294
0.00155036
2.47407e-05
-0.000263359
-0.00103817
0.000829535
-0.000770116
-0.0012896
0.000688941
-0.00258204
0.00108209
-0.00120916
0.002536
-0.00233576
0.00315925
0.00163201
-0.000172704
0.00393572
-0.00138976
-0.000841385
0.00168333
0.00170337
-0.00114153
-0.00262938
0.00118797
0.000724686
0.00052011
0.000161084
-0.000184111
-0.00140193
0.0007502
0.00102552
-0.00117828
0.00119286
0.00176331
0.000924803
-0.00147789
0.000828913
0.000781732
-0.00108009
0.000272616
-0.000526981
0.000178857
0.00191507
0.0007464
-0.000836192
-0.00174246
-0.00152623
0.000130197
0.00122645
-0.00152669
-0.000580425
0.000833527
0.0043361
-0.00347296
-0.00020525
-0.00139237
0.00325517
-0.000582531
-0.000103169
-6.02862e-05
0.00143035
-0.00110066
-0.000329695
-0.00142896
0.00431641
-0.00282279
-0.000971994
0.00245306
-5.77493e-05
-0.000770316
0.0017379
0.000906448
-0.00115885
0.000464876
-0.00365686
-0.00127566
0.000683088
-0.00212633
0.00140049
0.000759884
-0.000906981
0.00118822
-0.00115643
-6.03153e-05
0.00387622
-0.0046198
0.00353448
-0.00263546
-0.00230413
0.00253
-0.00308875
0.0020084
-0.000440057
0.00155792
0.00214166
-0.00173878
-0.00128132
-0.00325475
0.00413409
0.00056889
-0.00210971
0.000180668
0.00124327
-0.0024332
0.00123369
2.92214e-06
0.00186541
0.00117656
-0.00228056
-0.00126275
0.000855117
-0.00266456
0.00105011
0.00102684
-0.00120935
0.00305529
-0.00219126
0.00119087
-0.00046618
0.00268098
-0.000144981
0.00101816
-0.000196027
-0.00217444
-0.000914313
0.00117197
-0.0012067
0.000576587
-0.000576587
-0.000732938
0.0046198
-0.00330834
-0.00127765
0.000136125
0.00179899
-3.56755e-05
0.000233101
0.0039719
0.000364197
-0.00114745
0.00209845
-0.00293438
0.0018962
0.000843444
-0.000538156
0.0013185
-0.0026081
-0.00133298
0.00225778
-0.000173642
-0.00147659
4.25232e-05
-0.00152041
0.000717146
0.0028408
-0.00164794
1.02559e-05
0.0014899
0.000878884
-0.00106005
-0.000997871
-0.00164484
-0.0013594
0.000782865
4.66701e-05
-0.00222544
0.00305435
0.000903403
-0.00229577
0.00156818
0.00174124
0.00119702
0.00363952
-3.71839e-05
0.000711691
-0.00145188
-0.000954791
0.00240667
0.00235297
-0.000952482
0.000141187
-0.000132006
0.00245829
0.000167699
-0.000229465
-0.000642408
-0.00180165
0.00284459
0.000419833
-0.000925975
-2.37162e-05
-0.00112443
-0.000745964
0.00217781
-3.61514e-05
-0.00122292
-0.00244303
-0.0011147
-0.00104687
0.00201983
-0.000154417
0.00112739
-0.00123056
-0.000198357
0.000379219
0.0021963
-0.00150736
0.0010952
-0.00130045
-8.30791e-05
0.00113611
-0.0011964
-0.00291408
0.00163843
0.00190866
-0.00263005
0.000887594
-0.00269307
0.00354819
-7.63076e-05
0.000649546
0.000178065
0.0013723
0.00102447
-6.31186e-06
0.00203283
-0.00156843
4.17379e-05
-0.000619464
0.00186273
0.000696508
-0.000560383
-0.00138776
0.000230328
0.00023262
-2.03222e-05
0.00134135
-0.00134135
0.00166797
0.00152291
-0.00278566
0.00163832
0.000988798
0.000705033
0.000967067
-0.00116309
-2.80972e-05
-0.00157994
0.00135217
0.000746276
-5.5174e-06
0.000207155
-0.000201637
0.0012105
-0.00120758
0.00094645
-8.19594e-05
-0.000519805
-0.000627649
0.00106735
-0.00101788
0.00139985
0.000341386
-0.0112756
0.0116398
0.00112505
-0.00248446
0.000359412
-0.00329166
0.00237735
0.00818281
-0.00733936
-0.00116221
-0.00108519
0.00106685
-0.00124049
0.000866122
0.000475229
3.79731e-06
0.000228498
0.00330834
-0.00172108
-0.00130171
0.00119776
-0.00117072
-0.00147448
0.00267151
-0.00281354
0.00133695
-0.0129809
0.0136981
0.0013637
0.00403563
-0.00332393
0.00165726
-0.00265513
0.00209956
0.0020737
-0.00315203
0.00222606
0.000115609
4.54754e-05
0.00119135
-0.00122853
0.00156381
-0.00114397
0.00181993
-0.0014275
6.96945e-06
0.00156121
0.00177904
-0.00300196
0.000551459
0.000594014
0.00143881
4.90635e-05
0.000181264
0.0018697
0.00115749
-0.00128949
0.000302346
0.0003472
-9.2984e-05
4.27515e-05
-0.00169445
-6.37442e-05
0.00218883
-0.00331325
0.000215203
-0.000775586
0.00177035
-0.00281722
-0.000150578
-0.00117511
-0.000412446
-0.00706619
0.00897485
-0.000516491
0.00122152
0.000331548
0.00065725
0.00189767
-0.00301237
0.00134029
0.000270004
-9.34187e-05
-0.00372539
6.85291e-05
-0.00309282
0.000298486
-0.00100663
-3.92124e-05
-0.00100121
0.00206856
-0.00330374
-9.62481e-05
0.0157379
-0.00409808
0.00251013
-0.000852871
-0.000781537
0.00340474
0.000672934
-0.000341723
0.00198004
0.00275696
-0.000774682
-0.00176013
-0.00264073
0.00106079
-0.00134861
0.00118151
-0.00126459
0.00013115
0.000138853
-0.00160838
0.00280613
0.00232978
-0.00303977
0.00202188
0.00146832
-0.00277004
-1.48884e-05
0.00121013
-0.00123046
-0.00101613
-0.00190818
-0.000841628
-0.00042358
0.00178728
0.00136529
-0.00132355
-0.00214092
0.000633561
6.48326e-05
0.000386329
-8.30015e-05
0.00122959
-0.00131155
0.00209708
-0.0032678
-0.000169291
0.00213427
-0.00321946
-0.000651024
4.69353e-05
4.3622e-05
0.0066319
2.55979e-06
-0.000884782
0.000297295
0.00137067
0.0018585
0.000220313
-0.00239292
0.000216331
0.00101523
-0.00236883
0.00446838
-0.00130378
0.00160104
-0.000919547
-0.000813707
-0.00109364
0.00113639
0.00125225
-0.00124846
-0.00130807
0.000532485
-0.00112681
-0.000904875
0.000460182
-0.00178164
0.000393877
-0.00108591
0.00315961
-0.00242145
0.00376174
0.00138525
-0.000622186
-0.000436392
-0.00123018
-0.000878106
-0.00616616
0.00307334
0.00174673
-0.00215918
0.00660602
-0.00228102
-0.00102272
-0.000880797
0.00231883
-5.99042e-05
-0.00247182
0.000777372
-0.0018133
0.00248624
2.37211e-05
0.000346191
0.00152351
-0.00294201
0.0017669
0.00232623
0.000384684
-0.0047268
0.00296667
-0.000161445
0.00243488
-0.0034415
0.00172108
-0.000348789
-0.003094
0.00231932
-0.00581294
0.00497131
-2.60206e-05
0.000825949
-0.000779278
0.00258617
-0.0036023
-0.00618343
0.00601414
-6.96984e-06
-0.000253211
-0.00244112
0.000546485
0.00189463
-0.0103331
0.00623506
0.0012781
-0.00131731
-0.000581211
-0.000920123
-0.00333212
1.88657e-05
-0.00641726
0.00663758
0.00246193
-0.00324347
0.000779278
-0.000802995
-0.000825948
0.000967135
-0.0037078
0.00472303
-0.000681637
-0.00141103
-0.000784584
0.000453593
0.00187619
-0.00844718
-0.00670036
0.00716054
0.0120925
-0.00933558
-0.000879303
0.000802995
-0.00286995
0.00174314
-0.00176358
0.000476198
0.00128739
0.00027046
0.00636144
0.00305756
-0.00252508
0.00192731
-0.00278018
-0.00173356
0.0036132
0.00208663
-0.00297142
-0.00387622
-3.44471e-05
5.39436e-05
0.00135256
-0.00128773
-0.00574952
-0.00360871
0.00317232
0.000898386
0.00501487
-0.00296922
0.00215551
8.79739e-05
0.00124534
-0.00126023
0.000250424
0.00278996
-0.00369483
-0.00284627
-0.0009074
-3.34466e-05
-0.000632065
0.00226506
-0.00318461
-0.00278712
0.00148334
-0.00121212
-0.0072598
-0.00112247
1.48862e-05
0.00126852
-0.00126596
-0.000790032
0.00231354
-0.000403127
-0.000649905
0.00106847
0.00478804
0.00181798
-0.00716742
0.0075521
0.0009074
-0.00100038
-0.00536643
0.00534041
-6.27818e-05
-0.000967135
0.00119975
-4.66973e-05
5.64874e-05
-9.79017e-06
-0.000651545
2.00648e-05
-0.00102022
-0.00260482
-0.000638648
-0.00136354
-0.00162609
0.000302539
0.00228439
0.00251618
-0.00339429
0.000167321
4.90098e-05
0.00331424
-0.00389546
-0.00349356
0.00100038
-0.00109663
-0.000643398
4.66973e-05
-0.000116046
6.93487e-05
0.000848212
0.00147802
-0.000288054
0.00129808
-0.00127436
-6.87601e-06
-0.00123221
0.0128859
-0.00665089
0.012363
0.0027244
-0.000677511
0.00326156
-0.00394319
-0.000211682
0.000118263
0.000194294
-0.000693547
-0.000706354
0.0111495
-0.0028677
0.00194758
0.00355037
0.00423819
-0.00421933
-0.0141228
0.0056756
0.000348789
0.00102189
-0.00780986
0.00786381
-0.00469506
0.00216998
-0.00539468
0.00366113
0.00109663
-0.00117963
-0.012955
0.00720544
-0.00295191
-0.000143153
0.00113601
-0.00119975
-0.00297054
0.00233847
0.000220272
-0.000195531
-0.00222237
-0.0109812
0.00813494
0.00530646
-0.000291593
-0.000668428
-0.00257869
0.00116766
-0.000433276
0.00730745
-0.0145673
0.00280993
-0.00359452
-0.00971409
0.00850197
-0.00683476
0.00571229
0.00012653
-0.000132048
-1.92336e-05
0.00247423
-0.00311288
-0.00911106
0.00870793
0.00182601
-0.00119245
0.00164806
0.00196515
-0.000712191
8.53104e-05
0.000162544
-0.00285105
0.00220114
-0.000257762
0.00134587
-0.0012579
0.000167699
0.00456603
-0.00366764
-0.00149435
-0.00892371
0.00886093
0.000212796
-0.00109535
0.00393244
0.00712445
0.00117963
-0.00123954
8.56416e-05
-0.00857056
0.00792716
0.00107246
-0.00154037
0.000252635
-0.000496306
-0.00262696
-0.000485917
-0.000512575
0.00978726
-0.0164381
-0.000584356
-0.00681533
0.000595836
0.00214092
-0.00281843
0.00313836
-0.0037899
-0.00127411
0.00275213
0.00103943
-0.00274571
0.00172549
-0.00898371
0.00897684
0.0038662
-0.00415425
-0.00727936
3.27095e-05
0.000342739
-0.00377577
-0.000486042
-0.00157914
0.00251387
-0.00322022
0.000255214
0.00128631
-0.00127143
0.000200052
-6.89016e-05
0.0004273
-0.000207028
-7.69909e-05
0.00232255
-0.0030161
-0.000609089
0.000121053
-0.000706753
0.00206602
-0.00437374
0.00230772
-0.00339387
0.0157569
-0.000215775
-0.00477999
-0.00123783
-0.00674703
0.00379512
2.03517e-05
0.0013252
0.0013992
0.0135463
-0.00239683
0.00135021
-0.00133014
-0.00793615
0.00571378
-0.00079813
-0.0030859
-0.00796365
0.011514
0.00329035
-0.000999577
-0.000101078
0.00274451
-0.00341294
0.00252467
-0.00301058
-0.00102189
0.00209036
-0.000495879
0.00123954
-0.00127298
0.00595142
-0.00378144
-0.002752
0.0020398
0.00352986
-0.00396314
-0.00222386
0.00238713
-0.00287317
-0.000122785
-0.000502231
0.000270584
-0.000144054
-0.000456157
0.00177443
-0.00289399
0.00239768
-0.000550853
-0.00532768
0.00110835
-0.00919271
0.00893495
0.00228377
-0.00914534
0.00765099
7.50531e-05
-0.00229212
0.000928573
0.00256074
-0.00305662
7.58473e-05
-0.000475708
-0.0121657
-0.00427244
-0.00277994
0.00226737
0.00122161
0.000536427
-0.00121818
-0.00146051
0.000202609
-0.000739248
0.00986682
-0.00274237
0.00265307
-0.000265934
-0.000260039
0.00234093
-0.00186473
-0.000369324
0.00273323
-0.00323546
-0.000312432
-0.000215874
0.00461063
-0.00426789
-0.000357516
-0.00120787
0.0101524
0.00299992
-0.00358428
-0.00112446
0.00779322
0.000456372
-0.00425522
-0.00247911
0.00133458
-0.00124894
0.00145333
-0.00259249
0.00149714
-0.0009074
-5.62039e-05
-0.000651682
-0.00289039
0.00262445
0.00400097
-0.00407796
-0.000323396
7.63315e-05
-0.000413021
-0.00936355
0.0086568
-0.00038226
-0.00175129
0.000519085
0.00288792
-0.00320035
-0.00267465
0.0021238
-0.00129222
0.00127298
-4.66973e-05
-0.00169613
0.00309534
9.89133e-05
-0.000230961
-2.46928e-06
0.001056
-0.00843414
0.00534823
-0.00265151
0.00185338
0.00737377
-0.00357865
0.00292687
-0.00340258
-0.000611707
3.78305e-05
0.00539527
-0.00428691
-0.00119975
-0.000867005
-0.000407283
0.00021389
-0.000114977
0.00359233
0.00746999
-0.00272036
-0.0338561
0.0290761
0.00746661
-0.00569218
-0.0290761
0.0222608
0.0032738
-0.00372996
-0.00209036
0.00312979
-0.000105359
-0.000165243
9.63413e-05
-0.0222608
0.0149814
-0.002012
0.000819551
0.000207028
-0.000131975
-0.000308585
-0.00929761
0.00707376
-0.000255214
0.000112061
-0.0149814
0.0112056
0.00304453
-0.00336792
-0.0112056
0.0096265
6.31496e-05
-0.000379219
0.000101607
0.000277612
-0.0096265
0.00901741
-0.000428602
-0.0002213
0.00021433
-0.000155822
0.00287353
-0.000249074
-0.00901741
0.00880164
-0.00639691
0.0021417
0.00271951
0.000570834
-0.000310477
-0.00411314
-0.00308905
0.00273153
-0.00164663
-0.00279126
0.002409
0.00357501
-0.00383505
0.0011777
-0.00172851
0.000550813
0.00454188
-0.00408551
0.0338561
-0.0381285
0.00257232
-0.00294165
-4.69798e-05
0.00313503
-0.00354806
0.00138858
-0.00118597
0.00112738
0.00417285
0.000321446
6.98366e-05
-0.00880164
0.00867885
-0.00115546
0.000428964
-0.00166679
0.000463919
-0.00933549
0.00811731
-0.000267545
0.00472424
0.00319509
-0.00350367
-0.000154949
0.000139642
-0.0025723
0.00196059
0.00813505
-0.000678625
-0.00745642
0.00287607
-0.00287854
0.00134055
-0.0013202
-0.000172835
-0.00263887
0.00223158
-0.000448496
0.00390904
-0.00387121
0.0381285
-0.0387802
-0.00615041
0.0018635
-0.00830737
0.00472872
0.0387802
-0.030987
0.00335081
-0.00366128
-0.00108343
-0.00121637
-0.000215522
-0.00154321
0.000335341
0.00252724
-0.000673857
-0.00867886
0.00846298
-0.000218938
-0.0072752
0.00316206
-0.00295914
0.030987
-0.0208346
0.00507181
-0.00394444
-0.000678691
-0.000210111
7.39932e-05
-0.00400871
1.0411e-05
-0.00368287
-0.00239821
0.00127375
0.000986306
-0.000229868
9.97015e-05
-0.000205061
0.00166023
0.000174508
-7.48066e-05
-0.000901067
0.00244287
-0.00019725
0.00262699
0.00287854
-0.00303436
-0.00900352
0.00628317
0.000131975
-6.21388e-05
0.00549132
-0.00362782
0.00335185
-0.00361939
5.95311e-05
-0.00312979
0.00418579
0.000853508
-0.000317081
0.00426264
-0.00379872
-0.00111425
-0.00114771
-8.4008e-05
-0.00141741
0.00023144
-0.00108207
0.0208346
-0.0133646
0.0035706
-0.00372555
0.00195109
0.00114425
0.00457294
-0.00358663
-0.00662765
0.00261893
-0.000151826
0.00154688
-0.00192977
0.00252192
-0.00128134
0.00134449
-0.00846298
0.00803438
0.000391429
-0.00346559
-0.00120467
0.00134432
-0.00765874
0.00397587
-0.000154862
7.08537e-05
-0.00248261
0.00203411
-0.000112061
6.50809e-05
0.00378839
-0.0037144
0.000774215
-0.00245469
0.00178083
-9.06785e-05
0.00303436
-0.00320719
0.00476385
-0.00321697
0.0013167
-0.00108526
0.0133646
-0.00864034
-0.00293002
0.00244285
0.00117722
-0.000494097
-0.00900468
0.00735805
-0.00569835
0.00207053
-0.000251027
0.000221575
-0.000172566
-0.000379219
-0.00832681
0.00536767
0.00350431
-0.00370156
0.00398769
-0.00359626
0.00198242
-0.00220136
-0.00307941
6.21388e-05
-2.60769e-06
-0.00262699
0.00241147
-0.00667428
0.00320868
-0.00334675
0.00412097
-0.00241147
0.00220136
0.00864034
-0.00619748
-0.00162909
0.00580194
-5.85204e-05
-0.00198242
0.00175255
6.28367e-05
0.000112026
0.00476632
-0.00269579
0.00413766
-0.00296043
0.0003283
-0.00141037
-0.00269841
-0.000115084
0.000273297
0.00237614
-0.000715902
-0.00803438
0.00735569
0.00154935
-0.000887372
-0.00287854
0.00320719
-0.00335902
6.29756e-05
0.00147507
0.000790906
0.000524704
-0.00106351
0.00188306
-0.00124879
0.000163525
-0.00736233
0.00443231
-0.00218844
0.00110501
-0.00557647
0.00249705
-0.00201696
0.000953454
-0.000920487
-0.00204364
0.00619748
0.00115884
-0.00735632
0.000475853
-0.0015901
-0.000914694
0.000140447
7.23498e-05
-6.50809e-05
6.56054e-06
-0.000934514
-0.00236778
0.00400028
-0.00245093
-0.00327788
0.00380258
-0.00354727
0.00382057
-0.00418579
0.00533004
0.00121637
-0.00120596
0.00103985
-0.00221327
0.00129858
-0.00230833
0.00159242
-0.00625795
0.00355954
-0.000611036
-0.000979067
0.00366789
-0.00287698
-0.00175255
0.00150153
-0.00199466
-0.00121637
2.42899e-05
0.00364245
-0.00373313
0.00111869
-0.00100667
-0.00455357