/*--------------------------------*- C++ -*----------------------------------*\
  =========                 |
  \\      /  F ield         | OpenFOAM: The Open Source CFD Toolbox
   \\    /   O peration     | Website:  https://openfoam.org
    \\  /    A nd           | Version:  8
     \\/     M anipulation  |
\*---------------------------------------------------------------------------*/
FoamFile
{
    version     2.0;
    format      ascii;
    class       volVectorField;
    location    "0.6";
    object      U;
}
// * * * * * * * * * * * * * * * * * * * * * * * * * * * * * * * * * * * * * //

dimensions      [0 1 -1 0 0 0 0];

internalField   nonuniform List<vector> 
1924
(
(-0.00584447 -0.0102285 2.1355e-17)
(0.0405001 -0.0872369 2.08003e-17)
(1.08588 -0.119628 1.22644e-18)
(1.05265 -0.200635 7.40463e-19)
(0.0773506 -0.128068 1.39757e-17)
(1.08779 -0.222021 9.80719e-19)
(1.0444 -0.296648 -9.16944e-20)
(1.13195 -0.351621 -8.60777e-19)
(1.07821 -0.438683 -1.92972e-20)
(1.05498 -0.140385 1.55025e-18)
(1.19384 -0.525835 -4.73309e-19)
(1.14406 -0.652781 -6.46545e-19)
(0.130157 -0.0214493 4.51611e-18)
(1.31016 -0.796426 -7.94908e-19)
(-0.241646 -0.986491 1.04022e-17)
(-0.346585 -0.756916 1.03112e-17)
(0.252308 -0.129737 5.4617e-18)
(1.20322 -0.945786 2.11049e-18)
(-0.00671115 0.00338109 2.15549e-17)
(1.1914 -1.09163 5.82964e-18)
(-0.0158358 0.147402 4.72542e-18)
(1.5656 -0.411869 2.7815e-18)
(0.329091 -0.413597 5.77806e-18)
(0.837661 -1.21492 8.08105e-18)
(1.67798 -0.37619 4.45448e-18)
(1.89108 -0.600712 2.47968e-18)
(1.72555 -0.570536 1.92528e-18)
(0.457196 -0.130658 1.10964e-17)
(0.582554 0.218079 9.87336e-18)
(0.348003 0.168853 8.22585e-19)
(0.36045 -0.315846 7.23059e-18)
(1.90971 -0.381362 2.92338e-18)
(-0.347099 0.328094 2.08241e-17)
(0.319029 -0.186628 4.11684e-18)
(0.666295 -0.210792 7.73752e-18)
(0.222958 -0.522628 9.21501e-18)
(1.94801 -0.403344 1.75991e-18)
(0.707698 0.0554957 5.40391e-18)
(0.130119 0.31237 1.01813e-18)
(0.437029 -0.337814 6.25682e-18)
(1.95774 -0.428216 1.49957e-18)
(0.00893374 0.116517 3.18254e-18)
(2.01015 -0.51398 1.84864e-18)
(0.283845 -0.378487 3.34676e-18)
(0.170851 0.0388814 1.04442e-17)
(0.672927 0.260745 1.32799e-17)
(-0.0161311 -0.0281149 2.28142e-17)
(0.77008 0.169371 1.4074e-18)
(0.143542 0.303379 1.45542e-19)
(-0.091209 0.12797 2.9944e-18)
(0.712715 -0.322187 1.63932e-18)
(0.140728 0.0786587 4.28155e-18)
(1.30271 -0.448051 3.36422e-18)
(0.820661 -0.193896 -1.23052e-18)
(0.0623956 -0.372011 1.34459e-17)
(1.01899 -0.225756 2.30172e-18)
(-0.035763 -0.0156112 2.23569e-17)
(0.500059 0.201806 6.1967e-18)
(0.196094 0.0157442 1.85814e-17)
(0.414181 -0.643136 1.06796e-17)
(0.325572 -0.42903 2.43619e-18)
(-0.417864 -0.630097 1.01148e-17)
(0.337242 -0.303509 2.34582e-18)
(0.192786 0.776935 6.41794e-18)
(0.880302 -0.271349 -1.60321e-18)
(0.940824 0.0627557 9.37059e-20)
(-0.41473 -0.299776 1.37327e-17)
(0.284627 -0.572332 9.16994e-18)
(0.815322 0.259204 9.62045e-18)
(0.579436 -0.237644 1.49725e-18)
(0.300824 -0.040412 1.14323e-17)
(-0.469994 -0.391536 9.41798e-18)
(-0.0635897 0.504347 2.71601e-18)
(0.358455 0.0610449 1.17192e-18)
(0.259415 -0.0384746 1.75178e-18)
(-0.0566452 -0.151442 1.11709e-17)
(0.840917 -0.0921678 4.8528e-19)
(0.349286 -0.100174 1.34517e-18)
(0.729584 0.0723527 1.12317e-18)
(0.426709 -0.371773 2.05762e-18)
(0.397556 -0.669541 -5.23524e-19)
(1.514 -0.582069 2.2435e-18)
(0.393373 -0.0220199 1.11104e-18)
(0.0162556 0.146856 6.48486e-18)
(0.13329 -0.0544851 2.04726e-17)
(0.363653 -0.750669 9.1242e-18)
(0.544919 -0.138913 1.36539e-17)
(-0.13132 -1.04281 1.25024e-17)
(0.00430118 0.193539 1.64837e-18)
(0.369013 0.111422 1.15237e-17)
(-0.194475 -0.178449 1.04542e-17)
(1.31171 -0.708448 3.84352e-18)
(0.765886 0.127239 1.21941e-17)
(1.03551 0.121286 9.80999e-18)
(0.500367 0.239064 1.09172e-17)
(0.802439 -0.155624 -9.66202e-19)
(0.907125 -0.169654 4.97327e-19)
(0.452748 -0.770163 -4.47328e-20)
(0.634577 -0.580215 1.03608e-17)
(-0.0711077 -0.120226 1.12264e-17)
(1.17975 0.0281001 1.8402e-18)
(0.162564 0.184646 6.90166e-18)
(0.66476 -0.48027 9.48589e-18)
(0.99684 -0.627171 7.11622e-18)
(1.20774 0.0948246 8.97607e-18)
(0.428694 -0.288072 1.44813e-18)
(1.26695 0.0993899 3.41712e-18)
(0.941092 -0.0942044 9.19052e-18)
(0.329851 -0.712392 1.34177e-17)
(1.18765 0.259287 9.05003e-18)
(0.85835 -0.256865 5.11262e-19)
(1.05434 0.203021 6.5297e-18)
(0.512422 -0.073407 6.76393e-18)
(0.478472 0.077728 7.04835e-19)
(0.67221 -0.0323907 1.01309e-18)
(0.00594593 0.101021 7.26612e-18)
(1.16856 -0.0595006 1.21707e-18)
(-0.321174 -0.772012 1.05113e-17)
(0.522317 -1.30911 1.15491e-17)
(0.719158 -0.112922 7.88751e-19)
(0.105426 -0.022615 1.94938e-17)
(0.316368 0.0117404 -7.7139e-19)
(-0.0328675 0.205703 2.97238e-18)
(0.101646 0.159762 9.37326e-18)
(-0.511223 -0.113226 1.08629e-17)
(1.36996 0.016921 5.58349e-18)
(-0.0217106 -0.154612 1.01525e-17)
(0.330037 -0.178816 1.0306e-18)
(1.18851 0.206561 6.78257e-18)
(0.2651 -0.0734006 -6.62208e-19)
(0.781534 -0.308692 4.85743e-19)
(1.29598 0.049064 2.19665e-18)
(-0.0590996 0.0626047 1.24931e-17)
(0.503595 0.0298342 7.48747e-19)
(0.369456 0.197626 6.31151e-18)
(1.39799 0.123885 6.4686e-18)
(0.961548 0.108996 3.65895e-18)
(1.09153 0.136972 4.11368e-18)
(0.531111 -1.27124 1.23393e-17)
(0.665882 -0.0947214 5.4944e-18)
(0.992823 -0.125727 3.05625e-18)
(-0.453888 -0.168512 9.63758e-18)
(-0.0732148 0.0320769 1.43801e-17)
(-0.126606 -0.452666 3.91123e-18)
(1.23277 -0.0997558 2.46404e-19)
(0.227232 -0.0844178 -1.29163e-18)
(1.07833 -0.112856 7.67464e-18)
(0.0300963 -0.0199789 1.06928e-17)
(0.201486 -0.773639 1.41204e-17)
(0.706529 -1.43737 1.28574e-17)
(0.198646 -0.119036 9.68656e-19)
(0.269934 0.000750985 2.12321e-19)
(0.0164017 -0.125573 8.39516e-18)
(1.36641 -0.00396559 2.00645e-18)
(1.20424 -0.184025 8.49881e-19)
(1.43773 0.0281046 2.46927e-18)
(0.304134 0.0508915 -1.8913e-18)
(1.05836 0.032864 2.22532e-18)
(0.81248 -0.392214 2.55061e-19)
(-0.0604099 -0.335316 2.19257e-18)
(0.49913 0.118364 8.04083e-19)
(-0.0360765 -0.0229291 1.18897e-17)
(1.34174 -0.0724815 6.45833e-19)
(0.347841 -0.0047307 4.49345e-19)
(-0.13006 -0.241837 1.54491e-18)
(1.47841 0.100782 6.75491e-18)
(1.55038 0.0570608 3.50937e-18)
(0.30634 0.0641734 -1.3272e-18)
(0.665929 -0.175243 7.64687e-19)
(1.3803 0.174843 5.04635e-18)
(0.00476374 0.449911 2.07211e-17)
(1.30435 -0.23801 2.03631e-18)
(0.371428 -0.34229 3.18571e-19)
(0.798843 -0.666192 9.44963e-18)
(1.04407 -0.19929 1.62394e-18)
(0.663896 -0.151849 3.24232e-18)
(0.427268 0.234469 1.84411e-18)
(0.2037 -0.124564 9.82806e-18)
(0.343991 -0.581722 9.45712e-18)
(1.43495 -0.1257 -7.00877e-19)
(1.58246 -0.0740857 1.87348e-18)
(-0.310388 -0.897598 1.22484e-17)
(0.495177 -0.0511604 1.02854e-18)
(1.61654 0.0429475 4.1299e-18)
(0.190401 0.33382 -8.82984e-20)
(0.00944105 -0.0584794 2.24669e-17)
(0.0754427 -0.155333 8.13276e-18)
(1.76929 -0.110546 9.34063e-19)
(0.700985 -0.262727 5.46002e-19)
(0.496796 0.0376816 8.8388e-19)
(0.788529 -0.203555 7.10153e-18)
(1.28962 -0.321053 -1.41964e-19)
(0.753043 -0.450769 2.1047e-19)
(1.4271 -0.194924 2.35434e-19)
(1.65748 0.0005849 1.48343e-18)
(0.255555 -0.00951388 3.40395e-19)
(1.78073 -0.163241 3.35332e-19)
(0.844564 -0.106562 3.01967e-18)
(1.21976 -0.0697067 3.08313e-18)
(0.646935 -0.34483 5.87436e-18)
(-0.151335 0.0101603 9.59304e-18)
(0.00753319 -0.136798 1.99811e-17)
(1.51037 0.0825306 3.71231e-18)
(1.4154 -0.390692 -5.60678e-20)
(0.0918636 0.230809 1.74138e-17)
(1.68033 -0.109333 1.5038e-18)
(1.54372 -0.232346 2.03649e-19)
(0.185224 -0.0673175 8.84087e-18)
(-0.0223726 -0.0197326 9.57067e-18)
(-0.0578866 -0.0797848 8.70193e-18)
(0.360937 -0.0189599 6.4992e-19)
(1.37738 0.111828 3.39472e-18)
(0.158568 -1.25108 1.19703e-17)
(1.70553 -0.0239568 9.87629e-19)
(1.81622 -0.154524 6.87742e-19)
(0.415498 -0.21772 7.89287e-19)
(0.231272 -0.815371 1.27762e-17)
(0.932525 -0.152911 4.4688e-18)
(1.55447 -0.307351 2.41663e-19)
(0.265356 -0.244518 8.11891e-19)
(1.25165 -0.0352028 3.50344e-18)
(0.411052 -0.127648 2.37446e-18)
(1.57204 0.0607133 3.55703e-18)
(0.0601677 -1.23781 1.31205e-17)
(1.40481 -0.488401 2.62047e-19)
(1.77767 -0.206419 4.73507e-19)
(0.785052 -0.543072 7.43492e-19)
(0.395109 -0.446667 -4.90544e-20)
(1.69982 -0.0675455 -1.74407e-19)
(0.815629 -0.436516 6.04862e-18)
(-0.266554 -0.190078 1.40165e-17)
(0.0453703 -0.466855 1.0197e-17)
(1.36632 -0.0853854 2.17518e-18)
(-0.0846732 -0.0730209 1.10136e-17)
(1.692 -0.196146 4.60866e-19)
(-0.0274905 -0.428647 1.53509e-18)
(0.0583863 -1.31411 1.21531e-17)
(1.69526 -0.319525 1.10183e-18)
(1.57064 0.0101425 1.31532e-18)
(0.265731 -0.0226991 3.93662e-19)
(-0.376512 -0.878807 1.35738e-17)
(1.59763 -0.226022 1.87812e-18)
(0.161534 -1.33448 1.124e-17)
(0.17548 -0.0679132 8.35342e-18)
(0.00310926 0.133738 1.53121e-17)
(0.2874 0.273926 1.00691e-17)
(1.56367 -0.585815 2.10321e-18)
(1.01379 -0.213621 8.04443e-19)
(0.444588 -0.107148 1.16869e-18)
(0.370182 -0.400532 -4.08412e-19)
(-0.0306104 0.106394 2.05431e-17)
(0.354207 -0.0235981 7.85678e-19)
(1.71269 -0.0772612 1.62578e-18)
(1.46161 0.0806245 1.48882e-18)
(0.64415 -0.318279 4.30019e-19)
(-0.0969662 -1.27452 1.45858e-17)
(1.88385 -0.730256 5.61434e-18)
(1.56496 -0.32464 1.34831e-18)
(1.36523 -0.0471138 4.15222e-18)
(1.69836 -0.416878 1.88966e-18)
(1.56509 -0.000359178 3.37436e-18)
(1.6282 -0.0129887 5.31073e-19)
(0.781468 -0.719406 1.25769e-17)
(0.475557 -0.171395 6.85724e-19)
(1.94058 -0.33378 3.45165e-18)
(0.160364 -0.121522 2.08536e-18)
(0.0253868 0.141392 2.96761e-18)
(0.313197 -0.338346 -1.81237e-20)
(0.117563 0.0649892 1.2221e-17)
(-0.0660005 0.0186303 2.13111e-17)
(0.609858 -0.343354 7.70519e-18)
(0.236361 -0.095178 1.16674e-18)
(0.263166 0.168089 1.81081e-17)
(1.82233 -0.321983 8.66609e-19)
(0.0713908 -0.550951 1.17736e-17)
(0.313958 -0.71366 1.08758e-19)
(1.51075 -0.710746 1.6069e-18)
(1.64743 -0.240544 1.57745e-18)
(1.44877 0.0217984 1.67325e-18)
(1.21324 -0.276272 3.95768e-18)
(0.146933 0.0356353 1.83454e-17)
(0.25895 -0.0415206 4.77208e-19)
(-0.0364409 -0.265496 1.23584e-17)
(1.70658 -0.0908287 7.24223e-19)
(0.05653 0.0380641 1.99423e-17)
(0.462078 0.0241882 1.11808e-18)
(0.715785 -0.61417 -2.74269e-19)
(0.322844 -0.082569 2.49632e-19)
(1.69255 -0.402333 3.7278e-18)
(1.68839 -0.284565 5.01826e-19)
(1.63186 -0.072312 -1.58555e-19)
(-0.0193791 0.0344988 1.921e-18)
(1.49987 -0.198802 1.54459e-18)
(-0.0954636 -1.32128 1.25865e-17)
(-0.119421 0.0995754 4.23838e-18)
(-0.175053 -0.103783 1.7376e-18)
(-0.0899387 -1.23367 1.31625e-17)
(0.277711 -0.108135 6.66717e-18)
(0.274914 -0.305867 2.78045e-19)
(-0.0921726 -1.3024 1.30405e-17)
(0.213413 -0.0644039 -7.54065e-19)
(1.51498 -0.0158177 7.43373e-19)
(0.0646295 -1.36881 1.082e-17)
(0.116635 -0.894695 8.37965e-18)
(1.5018 -0.800384 5.56872e-18)
(1.86701 -0.360463 3.97677e-19)
(0.0737475 0.0904746 3.4676e-18)
(0.129949 -1.34541 9.95149e-18)
(1.6704 -0.338299 2.6244e-18)
(0.498316 0.0324973 2.84908e-18)
(0.307373 0.0488538 9.26661e-18)
(0.571385 -1.64322 1.27072e-17)
(1.67314 -0.0800053 8.5225e-19)
(1.32945 -0.450094 5.50601e-18)
(0.668644 -0.410757 1.74816e-20)
(0.112573 -0.0103573 4.17457e-18)
(1.6556 -0.0322132 1.12093e-18)
(1.48757 -0.572419 6.15974e-18)
(1.67223 -0.0777052 -4.01666e-19)
(1.72033 -0.041503 1.10523e-18)
(0.0466144 -0.0415918 2.24756e-18)
(0.787907 -0.275371 7.76422e-18)
(1.51689 -0.0848383 -1.10085e-19)
(-0.0714162 0.112598 2.78351e-18)
(1.78391 -0.440563 1.28616e-18)
(0.342765 -0.554152 3.96256e-19)
(1.81102 -0.23029 7.06759e-19)
(1.86952 -0.358539 8.90747e-19)
(1.00387 -0.244062 6.59648e-19)
(0.740016 -0.741478 -6.52616e-19)
(1.29685 -0.33753 3.42815e-18)
(-0.27304 -0.50325 1.4201e-17)
(1.1191 -0.748307 6.77629e-18)
(1.1503 -0.976528 8.65817e-18)
(0.202935 -0.259514 1.0452e-18)
(1.3949 -0.246112 1.52097e-18)
(0.200787 -0.621666 1.19459e-17)
(1.69426 -0.117213 5.99348e-19)
(1.60986 -0.0356091 1.6545e-18)
(1.58841 -0.105555 -6.8106e-19)
(0.329523 -0.508627 -9.21138e-20)
(0.379046 0.101946 1.55196e-18)
(1.63643 -0.425576 6.65763e-18)
(0.313173 -0.188253 7.00739e-18)
(-0.0746441 -1.23974 1.23437e-17)
(-0.334102 -0.51865 9.48851e-18)
(-0.353008 -0.380446 1.75595e-17)
(-0.136852 -0.178353 1.15334e-17)
(0.480236 -1.8553 9.81843e-18)
(1.87132 -0.427341 6.52921e-19)
(2.13762 -0.449169 1.91901e-18)
(-0.0770447 0.163896 1.97345e-17)
(-0.119091 -0.516474 2.07343e-18)
(-0.102329 -1.32597 1.13253e-17)
(0.437471 0.0942048 7.18345e-18)
(0.29939 -0.435304 -3.01647e-19)
(0.256489 0.197927 -8.96358e-19)
(0.887438 -0.62098 9.65002e-18)
(1.5703 -0.37221 1.96949e-18)
(0.864822 0.00605649 -6.42544e-18)
(1.12329 -0.191856 1.57839e-18)
(-0.0291771 -1.34871 1.14891e-17)
(-0.0661043 -1.32689 1.09262e-17)
(-0.126737 -0.695741 1.4034e-17)
(2.1469 -0.391131 2.25119e-18)
(1.61282 -0.171039 6.5913e-20)
(1.49366 -0.552587 8.97742e-18)
(0.769358 -0.242879 1.00454e-17)
(1.48846 -0.0234094 1.07195e-18)
(1.70786 -0.0862156 6.11163e-19)
(0.067305 -1.14181 7.85978e-18)
(1.76259 -0.0742263 7.67979e-19)
(1.8573 -0.383063 5.34716e-19)
(-0.366377 -0.956967 1.21843e-17)
(1.13564 -0.842569 8.44729e-18)
(0.0243736 0.264477 9.44535e-18)
(0.0109571 -1.30535 1.15729e-17)
(-0.128227 -1.0904 1.19073e-17)
(1.96719 -0.310447 4.06599e-18)
(-0.178178 -0.26067 1.24105e-17)
(-0.267071 -0.493169 1.11869e-17)
(0.276527 -0.40203 2.68835e-19)
(1.84704 -0.279939 -3.49764e-19)
(1.74089 -0.0960818 4.15477e-19)
(1.12109 -0.347665 4.5139e-18)
(0.0502024 -0.981455 3.91447e-18)
(0.14707 -0.227707 1.80584e-18)
(-0.201779 -0.728419 1.4436e-17)
(1.48771 -0.800187 7.16641e-18)
(1.68704 -0.155024 4.88375e-19)
(0.0885427 -0.437796 1.25238e-18)
(0.978617 -1.02625 6.13314e-18)
(1.82387 -0.264849 3.58081e-19)
(-0.143746 -0.523312 1.41786e-17)
(1.71435 -0.0788629 1.24096e-18)
(-0.0317103 -0.0391901 1.20231e-17)
(1.96045 -0.607901 5.1725e-18)
(1.79856 -0.386629 5.09886e-18)
(0.645315 -0.824706 -2.33487e-19)
(-0.355419 -0.670163 1.05447e-17)
(0.14904 -0.100685 -4.47036e-19)
(0.215516 -0.360883 2.26262e-19)
(0.361944 -0.330339 7.78212e-18)
(0.225065 0.00265267 1.13278e-17)
(0.221736 0.0358275 -6.44281e-19)
(0.0562998 -0.781528 1.43386e-17)
(0.178678 -0.775939 6.13764e-19)
(-0.0170473 -0.375313 1.29883e-17)
(1.68803 -0.408515 1.11576e-18)
(2.10753 -0.503772 2.5267e-18)
(0.974249 -0.253686 3.55141e-18)
(0.720881 -1.36541 9.45199e-18)
(0.625995 -0.863635 1.09613e-17)
(1.73791 -0.212652 1.006e-18)
(1.18976 0.0129725 3.8159e-18)
(0.0138803 -0.862693 6.4287e-18)
(0.278442 -0.645241 5.89331e-19)
(0.0173954 -1.37917 1.03289e-17)
(0.360297 -0.708792 9.09106e-18)
(0.933516 -0.275439 5.32946e-19)
(-0.0823327 -1.30673 1.01756e-17)
(0.930942 -0.411599 7.45928e-18)
(0.232802 -0.753306 8.26046e-19)
(0.471848 0.0177572 7.77586e-18)
(2.21234 -0.300007 2.21995e-18)
(-0.0635214 -1.2338 9.67529e-18)
(0.608522 -0.463169 -1.74766e-19)
(-0.148989 -0.127612 2.52771e-18)
(1.53436 -0.645854 8.42195e-18)
(0.658805 -0.825989 1.29004e-17)
(-0.0759518 -0.81337 1.41953e-17)
(0.271495 -0.600159 -3.81811e-19)
(0.49636 -0.694216 1.32255e-17)
(0.599286 -1.58308 1.21479e-17)
(1.56198 0.00025223 3.06505e-18)
(0.817093 -0.851448 1.16738e-17)
(-0.0744914 -1.07177 8.40281e-18)
(0.268947 0.17253 5.60315e-19)
(1.72701 -0.116013 1.90316e-18)
(2.17731 -0.297637 2.57377e-18)
(1.27212 -0.338444 3.59827e-18)
(1.24917 -0.804378 9.87426e-18)
(1.73971 -0.122006 -5.68197e-19)
(-0.385251 -0.228654 1.07884e-18)
(-0.135958 -0.377297 1.33233e-17)
(0.0504754 -0.135268 1.71385e-18)
(0.590986 -0.218143 4.93389e-18)
(0.177682 -0.336252 3.55887e-19)
(1.81781 -0.318547 4.29466e-19)
(-0.119137 -0.790518 1.43443e-17)
(-0.167464 -1.04976 1.19986e-17)
(1.28674 -0.886875 1.01086e-17)
(1.68986 -0.118854 2.77153e-19)
(0.610614 -0.985908 6.89304e-19)
(1.57186 -0.687685 8.14858e-18)
(1.72015 -0.309794 1.00565e-18)
(-0.0257038 -0.753999 1.94068e-18)
(0.0199078 -1.26669 1.10026e-17)
(0.583775 -1.61199 1.14113e-17)
(-0.338504 -0.594539 1.17005e-17)
(0.257365 -0.52432 -7.17452e-19)
(1.84316 -0.463426 6.12647e-18)
(0.189937 -0.133978 3.23969e-18)
(0.632622 -1.5963 1.19582e-17)
(0.359245 -0.378419 8.51342e-18)
(-0.0840142 -0.723406 1.39001e-17)
(0.0575231 -0.479037 1.32241e-17)
(1.00883 0.00577017 3.82341e-18)
(1.67149 -0.189983 3.43897e-18)
(0.525608 0.104497 1.46593e-18)
(2.07012 -0.296939 4.44799e-18)
(0.691171 -1.50373 1.07975e-17)
(0.0229615 -0.253318 2.55652e-18)
(0.0479523 -0.73638 5.83825e-19)
(0.891464 -0.534371 8.1579e-18)
(0.245556 -0.4959 -6.68342e-19)
(-0.55223 -0.242643 1.29717e-17)
(0.291133 -0.824221 1.20071e-17)
(-0.311041 -0.47621 1.3555e-17)
(-0.387391 -0.733645 1.17474e-17)
(0.447027 -0.431929 6.73547e-18)
(1.23572 -0.0168985 4.95711e-18)
(0.0793797 -0.830898 1.39565e-17)
(-0.111036 -0.503107 1.22558e-17)
(1.66621 -0.610499 8.62956e-18)
(2.11688 -0.254737 3.14626e-18)
(0.679382 -0.872082 1.27175e-17)
(-0.423199 -0.945699 1.16231e-17)
(0.436643 -0.79429 1.43881e-17)
(0.622643 -0.563376 -2.5628e-19)
(0.223868 0.0987619 2.13376e-18)
(0.499531 -0.826165 1.43257e-17)
(0.634323 -1.5968 1.30305e-17)
(0.945041 -0.314755 4.32467e-19)
(-0.034375 -1.20334 8.70903e-18)
(0.1597 -0.692474 5.3596e-20)
(-0.355608 -0.570945 1.26361e-17)
(-0.0700583 -0.88352 1.36091e-17)
(0.81468 -0.834099 1.25614e-17)
(-0.0654039 0.161596 7.17357e-18)
(-0.0838796 -1.11312 8.60549e-18)
(-0.144973 -1.11991 1.19302e-17)
(1.15635 -0.365775 3.79509e-18)
(2.14941 -0.26901 2.82367e-18)
(0.512845 -0.188271 8.53475e-18)
(-0.224564 -0.826276 5.21941e-18)
(0.112594 -1.35652 9.00496e-18)
(1.53925 -0.42084 1.08523e-17)
(1.15219 -1.10969 1.08949e-17)
(-0.117817 -0.729494 4.89844e-18)
(0.211055 -0.450613 5.08349e-20)
(0.186217 -0.660894 3.31249e-19)
(-0.0952789 -0.887473 1.32211e-17)
(1.6459 -0.137351 6.74338e-19)
(0.0589252 -0.829438 1.1642e-17)
(-0.0192161 -0.702524 9.50329e-18)
(2.03555 -0.4229 3.45105e-18)
(1.67985 -0.376902 3.40106e-19)
(1.18242 -0.15087 6.61311e-18)
(-0.405948 -0.712514 1.22186e-17)
(0.568606 -1.68603 1.24768e-17)
(0.0676132 -1.32535 9.99313e-18)
(0.202675 -0.595126 -7.10771e-19)
(-0.0911196 -0.682976 2.6294e-18)
(1.54349 -0.0927056 1.42418e-18)
(1.50311 -0.351935 1.00099e-18)
(0.0942961 -0.333736 1.85047e-18)
(0.378766 -0.539672 3.76579e-18)
(1.75665 -0.228247 9.22966e-18)
(0.524199 -0.0244022 5.34113e-18)
(0.806024 -1.56133 1.25945e-17)
(0.126163 -0.95537 1.23986e-17)
(0.797797 -1.54652 9.36469e-18)
(0.419224 -0.660976 9.11698e-18)
(0.414787 -0.140945 8.87241e-18)
(-0.337877 -0.58564 9.31549e-18)
(1.02339 0.00401965 5.85322e-18)
(0.912842 -0.536348 5.49645e-18)
(0.279014 -0.248173 4.63499e-18)
(2.00715 -0.110136 4.24686e-18)
(1.65298 -0.715839 8.75453e-18)
(0.0342517 0.415689 8.17581e-18)
(0.479951 -0.4919 2.35058e-18)
(0.186997 -0.429981 5.7031e-19)
(0.0367804 -0.690743 1.40102e-19)
(0.430456 -0.857172 1.33279e-17)
(-0.154449 -0.237847 2.93551e-18)
(0.0660271 0.684132 1.62566e-17)
(-0.425182 -0.537154 1.19552e-17)
(0.447052 -1.04305 1.89348e-18)
(0.476915 -0.859423 1.33371e-17)
(0.00171289 -0.878403 1.29592e-17)
(-0.424273 -0.835022 1.26931e-17)
(0.625399 -1.67472 1.30735e-17)
(0.759511 -0.683506 1.36104e-17)
(0.487979 -0.703482 9.69403e-18)
(0.417318 -0.613822 4.73496e-18)
(0.744742 -0.510398 2.16204e-18)
(-0.577007 -0.0646824 1.26171e-17)
(-0.485603 -0.185797 2.53963e-18)
(1.9817 -0.181904 3.69146e-18)
(0.653642 -1.70357 1.22333e-17)
(0.000733693 -0.17527 1.08364e-17)
(-0.022287 -0.897105 1.25725e-17)
(1.28775 -0.413984 2.31873e-18)
(0.393504 -0.77023 9.23656e-18)
(0.202582 -0.569356 -8.90433e-19)
(0.899476 -0.385305 2.50156e-19)
(-0.0333102 -0.255233 2.81311e-18)
(1.40063 -0.965203 1.24498e-17)
(0.0760928 -0.6863 -1.25556e-19)
(0.311566 -0.822985 1.32261e-17)
(1.04598 -0.434745 1.28295e-17)
(-0.0618472 -0.911052 1.13753e-17)
(0.124742 -0.414427 3.88765e-19)
(-0.319925 -0.771983 4.87479e-18)
(0.224057 -0.519945 5.06324e-18)
(0.467543 -0.340495 8.10892e-18)
(-0.0111 -0.804332 6.57275e-18)
(0.453684 -0.913483 1.19086e-17)
(1.89694 -0.464224 5.14485e-18)
(-0.447911 -0.613501 1.1861e-17)
(0.84339 -0.390172 9.47355e-18)
(-0.0710261 -0.902326 8.88989e-18)
(0.927216 -0.525919 -1.40845e-18)
(0.442955 -0.550589 3.84735e-18)
(0.0885397 -1.09971 6.43572e-18)
(0.438347 -1.91086 8.91196e-18)
(0.129207 -0.642697 -2.22388e-19)
(0.257245 0.203883 3.10616e-18)
(1.64086 -0.0544376 9.42029e-18)
(0.587308 -1.72116 1.242e-17)
(-0.104531 0.0328612 2.14837e-17)
(0.856074 -0.597436 -1.48036e-19)
(0.620399 -0.553731 1.35198e-18)
(-0.0529317 -0.64546 4.58069e-18)
(-0.489945 -0.700892 4.45863e-18)
(0.529706 -0.39884 1.61863e-19)
(-0.484053 -0.573456 9.08574e-18)
(0.573848 -1.81368 9.11711e-18)
(0.677806 0.902984 -2.60869e-18)
(0.160811 -1.25175 6.31524e-18)
(0.339498 -0.047805 4.55916e-18)
(1.4472 1.51786 6.08313e-18)
(0.728929 -1.63572 1.62019e-17)
(-0.15454 -0.940987 1.23634e-17)
(1.41112 -0.43034 1.39672e-18)
(0.187158 -0.524591 -4.94825e-19)
(0.436814 -0.70827 1.0497e-17)
(0.437075 -1.95045 9.1068e-18)
(1.7603 -0.00441529 7.84031e-18)
(-0.270058 -1.04128 1.12693e-17)
(0.307257 -0.610819 7.89949e-18)
(0.554426 -0.607393 -5.56427e-20)
(1.77458 -0.657115 6.07117e-18)
(-0.515952 -0.553971 1.1211e-17)
(1.42362 -0.107483 1.82739e-18)
(0.324419 0.0675542 9.2057e-18)
(1.01332 -0.591131 -1.29662e-18)
(0.374698 0.206862 2.38308e-17)
(-0.0516028 -0.630783 9.62069e-19)
(0.143441 -0.623934 -3.76344e-19)
(0.939405 -0.446691 1.48372e-19)
(1.79517 -0.178508 6.00842e-18)
(0.500065 -0.120587 8.90886e-18)
(0.0558057 -0.337699 2.92396e-18)
(0.408842 -0.632815 6.47406e-18)
(-0.522994 -0.577939 1.08318e-17)
(1.12041 -0.389274 2.80047e-18)
(0.512633 -0.621972 9.88664e-18)
(-0.479566 -0.751168 1.22597e-17)
(0.435831 -0.74916 1.31027e-17)
(0.46699 -0.459176 1.71702e-19)
(0.583187 -1.90814 1.02851e-17)
(0.64296 -1.63847 1.45693e-17)
(0.988524 -0.573885 -1.30477e-18)
(0.531042 -0.665062 1.46099e-17)
(-0.432599 -0.0304987 2.25636e-18)
(0.321179 -0.847824 1.19834e-17)
(-0.0138166 -0.650119 3.15921e-19)
(0.0342639 -0.875222 1.0167e-17)
(-0.039536 -0.935204 8.95465e-18)
(1.2769 -1.13082 1.30389e-17)
(1.01319 -0.224503 1.22449e-17)
(-0.348333 -0.749497 4.92767e-18)
(-0.0371261 -1.21453 9.53687e-18)
(1.71761 -0.365428 6.7858e-18)
(-0.404082 -0.963324 1.09038e-17)
(0.302927 -0.848192 1.08491e-17)
(1.14877 -0.491013 2.66242e-18)
(0.660336 -1.94773 1.25536e-17)
(-0.0897999 -0.847013 7.56262e-18)
(0.955024 -0.0465501 2.4715e-18)
(1.15167 -0.0539199 2.74937e-18)
(0.335653 -0.63987 1.02165e-17)
(-0.408718 -0.831164 2.40017e-18)
(0.528257 -1.84861 8.48232e-18)
(0.1747 -0.508252 -1.28621e-18)
(1.26553 -0.0504086 1.15494e-17)
(0.623315 -1.01235 1.07935e-17)
(0.245538 -0.655062 1.41457e-17)
(0.487131 -0.630507 3.8122e-18)
(0.0986629 -0.401277 1.35119e-19)
(0.0519829 -0.65736 -1.94381e-19)
(-0.57003 -0.799561 2.63255e-18)
(-0.493905 0.492332 2.09126e-17)
(1.60877 0.0626623 9.12564e-18)
(-0.519742 -0.70388 1.1623e-17)
(0.582382 -1.83575 1.36358e-17)
(0.896416 -1.49975 1.35649e-17)
(1.63172 -0.684742 7.62937e-18)
(0.150869 -0.581041 -6.92224e-19)
(0.334036 -0.0442041 2.01935e-18)
(0.554722 -0.716061 -2.29055e-19)
(-0.213 -1.11716 1.12074e-17)
(0.0730603 -0.649194 -3.03733e-19)
(0.41057 -0.386797 9.78937e-18)
(-0.470416 -0.858542 1.21992e-17)
(0.679425 -0.652526 2.32959e-18)
(0.367294 -0.610208 6.39529e-18)
(0.0655059 -0.64237 4.18633e-18)
(0.129483 -0.810589 4.53687e-18)
(-0.734882 -0.57535 7.01801e-18)
(-0.739509 -0.612768 3.84764e-18)
(1.59096 -0.0863333 8.97533e-18)
(0.300558 -0.0864018 9.37951e-18)
(-0.82978 -0.704616 1.4252e-18)
(0.0513767 -0.0826641 3.47996e-19)
(-0.0352915 -0.582328 1.72065e-18)
(0.457035 -0.675116 4.28084e-18)
(0.339498 0.305386 5.38049e-18)
(-0.0778965 -0.085638 7.58857e-18)
(0.893244 -0.540246 4.95261e-19)
(0.506883 -0.510903 1.04413e-17)
(0.962354 -1.74015 1.05586e-17)
(0.137774 -1.11094 4.55947e-18)
(0.475987 -1.02415 5.58545e-18)
(0.137092 -0.488904 -6.28865e-21)
(1.43024 -0.92745 7.48691e-18)
(1.55062 -0.401423 8.55031e-18)
(0.102422 -0.620336 -5.04132e-19)
(0.431262 -1.85859 8.51908e-18)
(0.327117 -0.728167 9.84439e-18)
(0.510567 -0.341803 7.8895e-18)
(0.899242 -0.710244 -1.4468e-18)
(0.282014 -0.768056 1.01612e-17)
(-0.112323 -0.882735 7.92539e-18)
(0.738281 -0.309003 1.09866e-17)
(-0.0378428 -0.587093 8.20657e-19)
(0.637288 -1.57565 1.06332e-17)
(0.558099 -1.87643 1.2851e-17)
(0.584195 -0.674151 2.95841e-18)
(-0.276014 -0.856327 5.09443e-18)
(0.0560715 -0.0832019 -5.97243e-20)
(1.18756 0.0828525 1.12454e-17)
(1.04394 -0.47221 6.51629e-18)
(-0.514146 -0.809243 2.95785e-18)
(0.412078 -1.82246 8.46308e-18)
(0.00145337 -1.11054 6.37804e-18)
(0.0724767 0.0702008 1.98087e-17)
(0.1125 -0.479899 5.16526e-19)
(-0.67966 -0.578524 9.30446e-18)
(0.148437 -0.567202 -5.73737e-19)
(0.368562 -0.808125 1.27091e-17)
(-0.509546 -0.810427 1.18789e-17)
(-0.114035 0.158842 3.65205e-18)
(0.155995 0.0911375 2.9418e-18)
(0.807137 -0.69261 -1.70178e-18)
(0.354759 -0.384767 1.00043e-17)
(-0.00414169 -0.639362 4.00715e-20)
(-0.647324 -0.777714 2.62318e-18)
(0.632436 -1.54007 1.71423e-17)
(0.092595 -0.0669975 4.05429e-18)
(1.46648 -0.555103 8.97805e-18)
(-0.854469 -0.568561 3.88559e-18)
(1.31655 0.0879454 1.09367e-17)
(-0.920876 -0.634958 9.7455e-19)
(0.151449 -0.850669 6.38104e-18)
(-0.776925 -0.556818 6.19999e-18)
(0.411329 -1.90062 8.55548e-18)
(0.787128 -0.711218 5.99275e-19)
(-0.937157 -0.72001 1.61552e-18)
(0.108995 -0.610258 -2.99996e-19)
(-1.88928 0.72147 5.85513e-18)
(0.96153 -0.656393 -3.27179e-19)
(-0.233358 -0.421911 -2.20828e-19)
(0.776923 -1.54622 1.15533e-17)
(-0.0148125 -0.772905 6.9807e-18)
(0.5674 -1.71598 1.28191e-17)
(0.0157546 -0.643415 -1.17549e-19)
(1.40339 -0.184253 9.75391e-18)
(-0.715555 -0.698194 4.34621e-18)
(0.187539 -0.58619 1.09728e-17)
(-0.0564243 -0.0889853 5.30921e-18)
(0.856251 0.412231 3.43546e-17)
(0.976414 -0.0906896 2.03595e-18)
(-0.187301 -0.479897 2.69858e-18)
(0.824578 -0.746174 -1.9576e-18)
(0.14464 -0.0917711 9.37711e-20)
(-0.772583 -0.55399 6.63026e-18)
(-0.0315014 -0.377666 2.1941e-18)
(-1.0256 -0.698811 1.26085e-18)
(-0.431934 -0.909962 1.00122e-17)
(0.0501906 -0.637933 -3.83658e-19)
(1.38056 -0.328541 9.61423e-18)
(0.398928 -1.5708 6.52012e-18)
(0.748984 -0.0759076 9.58606e-18)
(1.20686 -0.894799 7.50166e-18)
(0.492944 -0.838125 3.46764e-18)
(0.257504 -0.634344 7.27209e-18)
(-0.625482 -0.768452 9.19445e-18)
(0.373161 -0.538491 7.20365e-18)
(-0.0534031 -0.0544364 4.37451e-18)
(-0.635347 -0.762825 2.50683e-18)
(0.456885 -0.0704945 8.75395e-18)
(0.0645269 -0.6113 1.39819e-18)
(0.602251 -1.49815 3.50249e-18)
(0.960979 0.0671009 9.93065e-18)
(0.470245 -0.967839 5.65963e-18)
(-0.361503 -0.806106 5.13618e-18)
(0.426035 -1.98058 8.61255e-18)
(0.130245 -0.54731 -8.92028e-19)
(-0.0919382 -0.192342 1.05902e-17)
(0.188513 -0.239433 9.73616e-18)
(0.400869 -1.21815 1.23655e-17)
(0.0420651 -0.419142 1.84707e-18)
(-0.473884 -0.890571 1.24327e-17)
(0.136412 -0.729731 6.41556e-18)
(0.131831 -0.855966 2.03669e-18)
(-0.111074 0.426756 1.51879e-17)
(0.469121 -1.72032 8.97357e-18)
(0.432372 -1.70525 8.56005e-18)
(0.134703 -0.725845 1.70368e-18)
(-0.761057 -0.760235 2.69898e-18)
(1.29119 -0.426537 1.01015e-17)
(0.0629097 -0.63304 -6.16754e-19)
(0.0258166 -0.576285 8.35134e-19)
(0.321372 0.626755 -2.96973e-18)
(0.00572801 -0.767997 5.85595e-18)
(0.506371 -1.57847 8.08818e-18)
(0.271698 -0.13587 2.01626e-18)
(0.495184 -0.625904 1.00358e-17)
(1.14065 -0.0130887 1.00741e-17)
(-0.454891 -0.724136 9.96877e-19)
(0.108559 -0.592076 -7.78292e-19)
(-0.336628 -1.00338 1.06573e-17)
(2.89827 1.57408 7.48496e-20)
(-0.73071 -0.659705 7.1701e-18)
(-1.03077 -0.699289 2.11946e-18)
(0.82987 -1.17501 8.8805e-18)
(0.0492367 -0.448408 5.23012e-19)
(-0.0111154 -0.613687 2.21472e-19)
(-0.418955 0.375398 3.6008e-17)
(-2.94961 -0.192011 -1.79434e-18)
(0.395022 -1.63654 8.27303e-18)
(0.24581 -1.31986 8.10849e-18)
(-1.03272 -0.533539 1.9033e-18)
(0.65407 -0.782328 2.46177e-18)
(1.17508 -0.168277 9.03255e-18)
(0.484724 -1.33913 1.23074e-17)
(0.446976 -2.05702 8.02457e-18)
(0.539944 -0.0785312 3.77747e-18)
(-0.117955 -0.939451 5.7818e-18)
(0.603696 -0.87139 2.63612e-18)
(-1.20885 -0.594112 9.46415e-19)
(-0.00855158 -0.621909 5.70262e-20)
(1.08191 -0.585866 1.02956e-17)
(-1.14125 -0.549514 7.17395e-19)
(-1.12053 -0.677091 2.01556e-18)
(0.441214 -1.69457 8.04007e-18)
(-0.561209 -0.842252 1.01218e-17)
(0.0767608 -0.623799 -9.96846e-19)
(0.375927 -1.40463 8.6651e-18)
(0.358742 -0.290428 6.61901e-18)
(1.24328 -0.177724 9.45737e-18)
(0.581736 -0.0813326 7.21252e-18)
(0.118213 -0.54274 -6.85583e-19)
(-1.14585 -0.501413 4.94055e-19)
(0.0105887 -0.637582 -9.18262e-20)
(0.0789958 0.292011 -8.44139e-19)
(0.898085 -0.788115 -7.44931e-19)
(-1.62689 -0.98912 -2.38259e-18)
(0.0990022 -0.577737 6.01635e-18)
(0.842406 0.0435887 8.50871e-18)
(0.279415 0.163403 -1.31514e-18)
(0.422912 -1.94659 8.57866e-18)
(0.026527 -0.653298 5.7753e-18)
(1.18046 -0.180689 1.1381e-17)
(-0.980613 -0.518959 3.72445e-18)
(0.419917 -1.98291 9.2004e-18)
(-0.136638 -0.496444 1.15447e-17)
(-1.30113 -0.626625 1.44832e-18)
(0.571363 -1.1749 6.28221e-18)
(0.104367 -0.589476 -1.2113e-19)
(-0.615561 -0.780362 8.59499e-18)
(-0.706429 -0.716543 3.57276e-18)
(0.39305 -2.27768 9.42099e-18)
(0.586428 -1.08282 8.12945e-18)
(0.846593 -0.748919 -2.93757e-19)
(0.0730819 -0.530903 1.30355e-19)
(-1.17238 -0.521489 4.80024e-19)
(-0.265099 -0.914721 8.39718e-18)
(-0.845766 -0.727151 3.13065e-18)
(-0.0244256 -0.416075 2.61566e-18)
(0.563663 -1.73309 8.8206e-18)
(-1.12045 -0.66537 2.76401e-18)
(0.786556 -0.810571 7.13022e-19)
(1.00285 -0.0464491 8.54933e-18)
(0.572379 -1.30919 7.72651e-18)
(0.422351 -1.87622 7.51067e-18)
(0.0218823 -0.637254 -8.07485e-19)
(0.265649 -1.41203 7.33603e-18)
(0.912911 -1.3664 7.14223e-18)
(-0.247931 -0.151833 9.86776e-18)
(0.635093 -0.789651 9.85671e-18)
(-0.0663154 -0.422212 2.66108e-18)
(0.0792681 -0.623916 -1.80201e-18)
(0.55788 -1.8683 8.69267e-18)
(-0.0411062 0.0659365 7.69005e-19)
(-0.235901 -0.698978 4.20692e-18)
(-0.606743 -0.919242 1.059e-17)
(0.232141 -1.17491 6.28315e-18)
(-1.08002 -0.502764 1.55986e-18)
(0.0240954 -0.434805 1.72146e-18)
(-0.986618 -0.60566 3.55541e-18)
(1.05163 -0.0907814 8.62795e-18)
(-1.20766 -0.662655 2.29045e-18)
(0.950832 -0.960607 6.07513e-19)
(-1.35584 -0.602207 1.5069e-18)
(-1.27166 -0.552967 -3.78209e-19)
(0.840215 -0.285554 1.1333e-17)
(0.0394365 -0.635941 -9.79605e-19)