/*--------------------------------*- C++ -*----------------------------------*\
  =========                 |
  \\      /  F ield         | OpenFOAM: The Open Source CFD Toolbox
   \\    /   O peration     | Website:  https://openfoam.org
    \\  /    A nd           | Version:  8
     \\/     M anipulation  |
\*---------------------------------------------------------------------------*/
FoamFile
{
    version     2.0;
    format      ascii;
    class       surfaceScalarField;
    location    "0.75";
    object      alphaPhi0.water;
}
// * * * * * * * * * * * * * * * * * * * * * * * * * * * * * * * * * * * * * //

dimensions      [0 3 -1 0 0 0 0];

internalField   nonuniform List<scalar> 
2805
(
-7.24971e-11
3.58082e-05
-3.53602e-05
0
-1.84775e-10
-5.26395e-08
0
1.14747e-07
1.698e-08
-8.79472e-08
-4.52167e-08
8.39352e-09
-1.15452e-08
1.39427e-08
4.16806e-08
-1.64616e-08
-3.89349e-09
2.85825e-08
2.50551e-09
-9.6749e-09
-2.05095e-07
2.63048e-07
3.13265e-10
1.21873e-09
4.81713e-09
-8.12601e-09
-1.44809e-06
-1.06406e-06
4.13012e-06
2.95225e-09
1.06168e-09
1.87633e-09
-5.11032e-09
2.24965e-09
-4.08388e-10
2.24116e-09
2.32917e-05
-7.80427e-07
1.07678e-08
-1.16847e-08
2.3851e-05
5.42593e-05
7.46148e-09
2.40243e-09
0.000258265
-0.00016196
0.00027821
1.05104e-09
6.57504e-09
-9.93647e-09
-3.30542e-06
6.85785e-06
1.04116e-05
3.84935e-08
-3.32963e-08
2.4655e-12
9.07973e-10
1.36349e-07
-2.96343e-11
4.93567e-06
2.30903e-06
-3.88886e-09
3.40409e-07
-3.33857e-07
2.4846e-10
-2.16487e-07
2.41756e-08
0
-2.00722e-09
2.66499e-10
5.34165e-10
-2.33156e-06
-6.25466e-07
-1.76141e-10
7.06717e-11
1.8429e-05
8.84692e-07
-5.99824e-05
-9.36688e-06
5.15006e-05
-5.15294e-08
4.02847e-07
-3.9319e-06
1.7391e-05
1.82074e-11
-3.02745e-10
-6.76791e-07
-2.42713e-08
2.33141e-12
-3.23911e-09
-2.45512e-06
3.82293e-11
-2.33369e-11
-3.1843e-06
0.00053143
7.22397e-12
2.52673e-05
-1.34857e-05
3.50933e-05
-2.91453e-05
-7.76357e-08
-1.96962e-08
1.84158e-08
-2.7165e-09
1.36753e-08
4.08296e-10
-1.24593e-08
-3.53025e-06
2.04438e-06
-2.47845e-07
-0.000268852
-8.42936e-05
0.000353146
0.00019278
0.000186682
-0.000379458
7.42391e-05
-0.00117525
4.36138e-05
-2.35567e-06
-1.93284e-07
1.67737e-07
0.000448635
-0.00102854
-1.09384e-08
-1.93893e-08
2.35419e-08
-2.67773e-07
2.06277e-05
1.99111e-05
9.78067e-07
-2.64443e-06
-8.72699e-08
2.58767e-08
5.15861e-08
1.70042e-05
7.26697e-06
1.18035e-09
-1.74037e-09
0.000950369
-0.000349425
-7.24656e-10
-1.45245e-13
8.59425e-10
-3.28717e-05
5.65865e-06
6.17317e-07
1.30073e-06
-7.55757e-06
2.06856e-07
3.4534e-06
4.74632e-06
-1.81481e-06
2.45982e-08
-0.000216887
-0.000960381
1.37219e-06
-3.79564e-06
1.04682e-07
-2.10298e-10
1.87732e-09
-6.12923e-11
-4.94666e-08
4.94862e-08
1.11745e-06
-2.1595e-06
3.74528e-07
0
-1.52421e-07
8.3038e-07
-2.51687e-07
-4.70363e-06
3.10098e-06
-8.0526e-08
-1.13146e-07
0.000717493
1.44788e-05
-8.37161e-06
-5.99593e-06
2.25166e-06
1.99795e-09
-3.30309e-10
-2.34001e-08
2.42282e-08
-3.4029e-06
-3.11663e-05
-4.37968e-05
1.11679e-05
1.45235e-06
5.20827e-08
-5.09297e-10
-5.40089e-09
-7.60719e-05
3.74833e-06
3.94923e-06
-7.03258e-07
-9.05354e-06
4.807e-06
6.66529e-06
6.70481e-10
7.05121e-08
-8.22675e-08
6.55733e-09
8.93673e-06
-1.29374e-07
3.76285e-06
-3.68861e-05
2.28787e-07
4.64826e-07
6.43673e-06
8.1175e-06
-1.51696e-08
-7.83238e-08
8.26561e-06
-5.31932e-06
-1.35313e-07
1.63185e-06
-1.19734e-07
0
-5.79195e-09
-1.49551e-08
2.77364e-06
-1.4648e-08
7.51856e-08
5.7463e-09
-1.32552e-05
9.57716e-07
1.23738e-05
-1.27705e-06
-2.4873e-07
1.60315e-06
9.28817e-06
1.43699e-06
2.01322e-07
-2.15764e-07
-7.38299e-07
-1.51139e-07
2.18917e-07
1.17509e-06
-1.29508e-06
-6.8776e-07
1.57571e-09
-2.72758e-10
-1.55532e-09
8.58209e-08
-1.38532e-07
-6.26289e-06
0.000161483
3.06474e-14
9.93513e-10
1.28172e-09
4.9769e-07
-4.38031e-07
-2.81938e-08
-1.71704e-07
-1.73985e-06
-3.97531e-05
-0.000345159
0.000358085
-1.29262e-05
0.00046499
-2.50241e-06
-3.12817e-09
5.10565e-06
-1.8013e-07
0
-2.54715e-06
3.34504e-06
-5.26937e-07
9.29335e-06
-1.45471e-05
4.98275e-07
-6.46364e-05
0.000254178
-0.000189542
3.00769e-07
-6.01062e-07
4.50579e-07
-4.80885e-08
6.18712e-07
-4.21902e-07
1.37577e-09
-7.06367e-07
2.57176e-06
-2.88027e-06
1.58854e-06
-1.54738e-06
2.5381e-08
1.23785e-09
4.44876e-08
7.32425e-07
-3.11449e-09
2.1259e-06
-1.24422e-05
-9.84446e-05
2.59626e-05
-5.41029e-09
1.26612e-08
-0.000186276
0.00012164
9.50926e-06
4.36562e-07
4.25917e-08
2.08506e-08
5.44719e-07
6.63064e-09
-5.89345e-07
5.73171e-07
-0.000345159
1.6924e-06
6.70972e-07
-1.1212e-08
3.86152e-07
4.64278e-09
6.01544e-08
2.38596e-07
0.00033126
2.68248e-05
-6.72712e-07
-1.87079e-08
8.09337e-08
-4.43275e-08
-1.75518e-05
9.5715e-06
-9.27728e-10
2.87611e-10
-1.03249e-08
1.74714e-09
-0.000334371
-1.07878e-05
1.20728e-07
-6.44726e-07
9.77868e-07
4.91604e-07
1.8538e-07
-1.13021e-07
0.000127878
0.000203382
2.21137e-07
-4.33891e-07
-1.70454e-06
-1.61578e-09
6.40806e-07
-1.32773e-09
2.97584e-09
-1.90451e-06
-1.12723e-05
1.68103e-06
4.44643e-08
8.4151e-07
-3.23364e-06
1.31054e-07
-1.07678e-09
-1.29312e-05
8.6523e-06
1.13168e-05
1.0548e-05
-1.26281e-09
2.63743e-09
1.7746e-07
5.06623e-08
-4.27587e-07
4.19156e-08
-4.24839e-08
-2.94041e-07
-1.99626e-08
2.81247e-07
2.00364e-07
4.98039e-07
0.000170062
-0.000254356
7.24316e-11
2.81756e-09
2.75835e-07
-2.55256e-06
4.46584e-07
1.54564e-05
-6.20483e-08
-5.47158e-07
-1.5031e-08
6.55737e-08
6.83532e-06
2.94448e-06
6.05286e-09
3.62287e-07
-6.60821e-07
1.13875e-09
5.0793e-07
-3.23537e-08
-0.000334371
3.31718e-06
7.39101e-06
-2.13778e-08
-3.74165e-08
1.01364e-06
3.82078e-07
-2.60283e-07
1.54363e-05
0
-0.000154601
1.03589e-07
-2.21114e-07
1.6012e-09
-6.99948e-10
1.09449e-06
-3.30606e-10
7.95197e-10
5.36485e-08
9.5347e-08
3.93294e-07
7.8801e-06
-0.000335506
1.13476e-06
2.52602e-07
2.02401e-07
-1.81698e-07
-2.28856e-08
8.63832e-08
2.05775e-07
2.45722e-05
1.03736e-05
1.7684e-07
-1.78872e-10
-3.83607e-07
3.70906e-10
-5.59615e-06
-9.26358e-06
9.27612e-08
2.66054e-08
4.04289e-11
1.92255e-07
9.52305e-09
3.15807e-10
-8.48946e-07
5.68968e-06
-1.39256e-08
9.74678e-08
-1.05117e-05
-1.33681e-06
1.33145e-05
1.12598e-08
-2.09249e-08
2.05972e-05
-5.3634e-06
-7.65497e-06
2.92278e-07
9.35893e-08
-9.76692e-08
-3.08575e-08
2.2012e-05
3.86335e-06
-1.88343e-05
-1.10302e-05
-8.69203e-06
6.41643e-06
2.30398e-12
3.08039e-10
2.77531e-08
-1.4261e-08
-0.000335506
3.91056e-08
3.28435e-09
2.00947e-05
7.34844e-06
-6.53812e-06
-2.58054e-06
1.28003e-07
-8.08268e-08
3.49463e-05
-4.87991e-05
2.43144e-07
1.38416e-10
1.05362e-10
2.38908e-07
1.02625e-06
-9.09746e-06
-2.59833e-05
-0.000226716
-0.000108789
2.46747e-09
1.0465e-08
-1.2796e-07
1.13031e-06
-3.81536e-06
4.75536e-07
-3.02936e-07
9.26887e-07
4.02852e-06
-2.76468e-05
2.0953e-05
5.48668e-06
-1.41553e-08
1.00261e-10
6.34361e-07
3.86896e-10
1.33634e-06
1.21596e-06
3.89261e-06
1.66192e-10
1.80997e-10
-3.3319e-07
-4.8128e-06
0.000271905
0.000397749
-3.67264e-06
-4.37181e-06
6.76031e-09
2.11371e-06
1.64957e-05
5.47916e-06
-2.89485e-08
6.35619e-07
1.38939e-06
3.67011e-08
-7.62405e-06
2.70538e-07
5.36401e-07
-9.11633e-06
4.21969e-07
9.86951e-10
1.58606e-07
2.40704e-08
6.23805e-09
1.76526e-05
-0.000106039
-0.000226716
-3.85079e-07
9.17358e-09
-3.4396e-09
-2.66678e-05
2.61376e-07
7.85273e-07
-1.21028e-06
-0.000254178
2.74622e-05
0
5.69619e-11
-7.90073e-06
8.86724e-09
-3.37676e-09
-2.92183e-09
-8.73969e-10
4.31318e-06
-8.91048e-06
1.01546e-05
-3.63203e-06
-0.000164588
-1.35168e-07
-7.73857e-07
4.71915e-07
9.28823e-13
7.96412e-08
4.3999e-08
-8.79298e-06
5.95697e-06
-5.04959e-09
-1.41932e-05
7.80209e-06
3.12747e-07
0
4.5537e-10
2.12493e-10
-7.57054e-10
1.38201e-09
-2.43589e-09
-0.00010011
0.000501124
-7.31492e-06
-6.76978e-06
8.87192e-06
-5.0593e-09
2.77592e-07
1.37027e-05
-1.64984e-05
5.24767e-09
5.07447e-09
3.61444e-06
0
-2.28295e-06
-3.29695e-06
4.05682e-05
1.8854e-08
2.88858e-09
1.0271e-09
6.70713e-08
-3.39952e-07
2.19689e-05
-5.99633e-06
3.29747e-09
-1.49253e-07
1.29623e-08
-1.31046e-09
-3.3079e-09
-5.10681e-06
-2.09784e-06
1.04633e-05
1.65079e-05
2.05599e-09
2.47099e-08
-9.0277e-08
1.68284e-07
2.46348e-05
7.72536e-08
1.36362e-06
1.07259e-06
-2.37886e-06
2.0383e-09
-2.6731e-06
-7.82897e-06
7.27637e-07
4.92444e-08
8.6441e-07
1.36956e-09
-3.55364e-10
1.29941e-08
-5.382e-09
0
-6.59191e-06
-3.05208e-08
7.46422e-10
1.40171e-10
1.03698e-07
-2.81524e-08
-9.46042e-08
8.09898e-07
1.63587e-09
2.70187e-10
6.97035e-06
4.78943e-07
6.86456e-06
0
-3.54899e-12
9.7224e-12
3.28458e-06
4.895e-06
-1.19965e-05
8.44581e-06
1.6466e-06
-6.37408e-06
-2.75493e-06
-8.956e-05
0.000199686
-0.000110126
4.7179e-10
2.30389e-09
5.96284e-08
2.32594e-07
1.98835e-06
1.5355e-06
1.05324e-07
-6.05427e-06
5.16703e-06
-5.8009e-07
-4.08712e-06
2.26952e-06
5.02506e-09
1.61597e-10
5.26646e-10
5.91744e-08
1.71987e-05
4.91058e-06
5.48909e-09
7.99901e-09
3.28899e-09
-1.06806e-05
3.52952e-06
3.22993e-09
-4.93605e-10
4.88159e-07
-4.46971e-07
4.20214e-06
2.49139e-06
-8.43275e-06
5.74949e-06
9.2086e-06
7.43894e-07
-2.07979e-11
1.83419e-10
-3.18338e-10
6.82016e-06
1.40217e-09
-8.60189e-06
-2.28627e-06
1.3693e-08
1.8137e-05
-1.44773e-06
-3.76807e-06
-9.19512e-06
2.08956e-06
5.15043e-06
8.30858e-11
0
7.72233e-08
3.31922e-08
2.18007e-06
0
4.09458e-08
-1.55946e-08
2.55481e-06
1.47695e-06
9.9114e-11
3.16023e-06
-7.86797e-06
1.64147e-09
-0.000174059
-1.22169e-05
-3.25669e-06
-7.79816e-06
3.30877e-08
3.6544e-08
7.27286e-09
0.000127878
5.94263e-07
3.26882e-07
-1.14855e-05
3.48901e-07
9.53117e-06
4.36636e-06
6.19183e-07
6.14691e-08
2.22539e-08
0
-5.25405e-08
7.95867e-10
-4.35472e-10
2.99024e-10
1.55638e-08
-9.15875e-09
1.62805e-07
1.49911e-07
-4.92464e-06
-1.07437e-06
-7.69839e-06
7.33353e-06
1.44034e-06
-6.94254e-06
9.15958e-06
8.68811e-08
-4.60377e-07
1.91094e-05
-4.34983e-06
-6.36506e-06
1.47488e-06
-1.04458e-07
6.49606e-07
-3.91384e-06
1.33078e-06
2.80527e-06
-1.11574e-05
-9.4437e-10
5.51748e-11
2.6074e-10
9.20919e-09
5.01523e-07
1.6762e-07
6.881e-07
-5.85592e-06
1.84141e-06
4.16597e-10
1.83084e-08
-9.73525e-08
2.64272e-08
5.07753e-09
-6.47934e-07
-1.04339e-05
0.000489548
-0.000480952
7.57855e-09
1.03005e-08
2.41673e-05
4.11564e-06
2.43856e-07
2.42711e-09
-3.31047e-07
-4.43071e-06
7.32499e-06
-3.0129e-07
4.26864e-08
-1.02486e-07
-1.32648e-05
2.68195e-09
2.78121e-07
5.4326e-08
7.05517e-07
2.18479e-09
3.85608e-08
-9.27804e-07
7.25988e-07
5.59572e-06
1.12007e-08
-1.17988e-06
5.61298e-08
7.84355e-06
1.23732e-06
-3.93681e-08
3.0343e-08
1.11051e-09
3.32265e-10
-2.77745e-06
-3.9489e-06
-2.23726e-10
3.02662e-10
-3.43764e-05
6.99158e-05
1.03291e-08
3.77593e-07
-2.34716e-09
1.42811e-07
3.766e-06
-2.02892e-07
8.59488e-06
5.86386e-06
2.4485e-08
-5.23553e-08
-9.37217e-08
1.29502e-06
-2.75974e-10
1.19804e-09
-8.2319e-10
-4.14424e-07
-5.2957e-07
2.96296e-06
8.74298e-06
-5.61895e-06
-5.70632e-11
4.04134e-13
2.50599e-10
4.30411e-10
1.31579e-06
6.22175e-06
1.12694e-09
5.55169e-10
-1.98945e-08
4.54215e-08
1.52801e-08
4.81695e-07
7.99519e-09
1.11283e-06
3.57778e-09
1.04708e-09
5.07841e-07
0
2.51632e-08
7.11802e-07
0
0.000488846
2.27081e-08
8.73198e-08
1.54451e-08
-1.62259e-06
5.87163e-07
-1.30945e-06
-9.39448e-07
2.11082e-07
1.27494e-07
1.18251e-08
5.06114e-09
-1.42483e-06
0
-7.44445e-08
8.70773e-06
3.96013e-06
-1.94403e-10
5.39789e-06
3.91999e-07
1.48487e-07
-1.43652e-10
5.86659e-06
1.47154e-06
1.8199e-07
2.66803e-06
-2.17847e-10
1.4749e-09
-7.01231e-07
5.54554e-08
-1.28062e-06
-7.09757e-06
-1.684e-06
6.79434e-08
3.6925e-06
2.74972e-07
-5.99602e-09
2.70558e-07
9.74613e-11
6.78742e-09
2.77061e-08
1.42998e-09
-7.87017e-09
9.60286e-08
7.22728e-06
-4.94196e-07
-3.0887e-06
-3.06538e-07
1.09582e-05
3.9356e-08
1.20786e-08
-7.92763e-06
4.508e-07
5.94634e-06
7.27252e-08
1.60429e-05
-3.75359e-08
1.43466e-08
-4.21276e-09
1.47808e-09
-1.33522e-09
5.20111e-10
6.31979e-06
3.97572e-06
7.08442e-07
7.35641e-09
-2.56569e-08
3.64394e-07
2.30336e-08
-6.73967e-07
3.55474e-06
1.98352e-06
1.70967e-06
-4.50228e-10
3.12089e-09
-1.99604e-06
1.18296e-08
0.000459569
0.000216252
-8.63365e-06
-1.53006e-07
-2.95689e-07
-5.14352e-10
2.28388e-08
-3.22837e-09
-2.33532e-10
-3.86534e-13
5.93771e-13
-3.33226e-07
2.52981e-06
-8.90772e-06
6.02474e-06
3.5829e-10
8.44505e-09
3.93936e-09
3.90639e-09
-1.16727e-08
1.48688e-07
-8.70203e-09
7.7996e-10
1.22236e-05
8.6785e-06
5.36689e-08
4.29544e-05
-1.64913e-07
0
-4.55862e-12
8.00237e-06
6.2522e-09
5.21283e-06
1.16151e-08
9.04418e-07
-6.93647e-06
-3.58636e-06
3.011e-08
-2.99286e-08
2.03457e-10
-2.33981e-06
2.14495e-07
2.18621e-07
1.21004e-07
4.20373e-09
-1.14495e-07
-1.71513e-05
3.34209e-07
-3.03262e-08
1.74937e-06
2.59123e-06
1.76669e-06
-1.16121e-07
4.15435e-08
-2.57297e-06
-5.53284e-06
0
9.26061e-11
9.65806e-08
6.15915e-09
5.49571e-08
2.47354e-07
3.08463e-06
1.34914e-06
0.000522802
4.33655e-07
1.50898e-07
2.19926e-05
-1.5054e-05
3.53281e-07
-2.09693e-06
-1.28294e-08
5.67548e-08
1.53923e-08
5.6704e-08
0.000115529
-2.14453e-05
3.09949e-06
0.000189507
-6.01239e-08
4.7607e-09
-7.47624e-06
-4.13002e-06
6.66425e-08
0
9.71822e-10
1.15359e-05
-2.34358e-05
3.07221e-06
9.57663e-06
5.53517e-06
-3.52722e-13
5.6517e-14
0
1.91009e-10
9.55219e-10
1.86105e-08
3.85294e-06
-8.82057e-06
-9.21069e-06
9.74265e-07
1.81581e-06
5.12372e-06
3.59754e-06
4.02796e-06
4.81424e-06
1.51554e-06
-3.87931e-06
1.43118e-09
1.54406e-08
3.90566e-08
3.6849e-06
5.44613e-06
-1.74949e-06
-1.13405e-08
1.35532e-06
-6.83902e-09
6.83977e-09
3.97794e-08
-3.44973e-07
-2.71702e-06
1.2358e-08
6.72425e-06
1.29503e-06
-2.11846e-08
4.32721e-08
-2.21155e-06
4.80562e-07
8.15628e-06
1.01193e-07
3.40186e-08
2.07842e-05
-2.14502e-06
8.75601e-10
5.95247e-10
-1.88998e-10
3.80105e-10
3.95314e-06
5.45907e-08
2.54291e-07
1.15353e-05
4.3556e-10
0
-8.30627e-09
1.91557e-07
-2.54227e-07
7.61077e-10
4.26645e-08
4.33626e-10
2.59079e-11
1.57744e-10
-1.35053e-08
4.13092e-09
2.20382e-10
1.40179e-07
2.91522e-06
4.18308e-06
8.13521e-06
5.95096e-07
6.50868e-07
2.28757e-07
-1.45851e-08
2.06344e-08
1.57231e-07
1.05782e-05
3.07287e-06
3.33776e-07
-1.87871e-09
2.61638e-08
-2.55789e-08
-3.97213e-06
3.00687e-09
1.8274e-05
7.64536e-07
0.000142658
0.000316278
-1.1358e-05
1.71957e-06
-3.62475e-06
5.09569e-08
-9.7974e-14
6.9461e-06
5.50235e-07
5.3454e-09
-4.12254e-08
2.62935e-07
2.14791e-10
3.29785e-11
1.39282e-09
4.10619e-06
-8.06773e-06
-0.000402043
0.000892406
6.55993e-06
-6.43147e-07
5.14534e-08
9.40197e-10
3.00203e-09
0.000519268
4.66173e-05
7.88511e-06
-3.06818e-06
-1.14843e-07
1.56072e-07
3.55165e-08
-1.60167e-07
1.37928e-06
1.27602e-07
-7.10007e-09
8.24868e-06
5.39962e-09
6.64242e-09
-1.09507e-09
0.000329396
-8.74732e-05
-0.000241917
2.8648e-07
-3.48453e-07
2.90671e-05
-1.41866e-08
-6.87826e-09
4.84426e-08
2.97929e-11
2.49002e-10
1.13525e-08
-1.21347e-07
2.95975e-06
5.93052e-06
6.08046e-06
-2.46333e-05
1.89729e-10
5.7274e-06
2.41454e-06
4.44816e-06
-5.90899e-06
3.14386e-08
-1.55594e-07
-1.17654e-07
1.43761e-07
8.91777e-08
2.57852e-06
5.14088e-07
1.12356e-07
1.43539e-10
1.57623e-10
2.32849e-09
-5.65787e-08
2.58248e-08
1.4089e-07
2.18406e-07
0.00076839
1.04479e-08
0.000118693
0.000210703
4.12071e-09
9.73816e-11
1.12012e-07
4.32617e-09
-8.35492e-08
-3.91918e-09
3.7025e-06
4.35072e-05
-0.000185241
-1.45304e-05
1.05791e-07
6.54474e-12
-1.22836e-06
4.60447e-06
-1.52894e-06
1.49085e-09
-0.00041529
0.00027507
7.66016e-07
5.82266e-07
5.34024e-06
6.89917e-07
1.00965e-06
-9.73704e-07
5.13963e-08
1.83081e-06
-4.89272e-09
4.87648e-10
3.55235e-09
3.97384e-06
1.41211e-09
1.03915e-07
6.93735e-10
3.81399e-07
5.02985e-07
9.28029e-07
-2.31287e-07
4.91591e-05
8.04735e-09
-3.94948e-09
-7.43432e-07
-0.000540619
0.000186008
0.000354611
1.67725e-08
-5.96138e-06
1.05843e-06
6.58189e-11
1.48245e-10
1.53589e-06
2.05225e-07
-9.00671e-07
7.87326e-06
3.82162e-07
2.27023e-10
-6.04887e-12
3.5688e-08
1.2038e-08
-4.04167e-10
-1.16332e-08
5.09551e-06
-2.7683e-10
3.05153e-11
1.27301e-06
-7.28592e-05
-0.0001012
1.01841e-06
0
-3.54935e-08
2.13848e-10
1.06215e-06
-1.94688e-07
5.63156e-06
-6.74666e-06
1.02945e-05
1.52921e-05
-1.87059e-06
2.31945e-10
2.73199e-10
2.70369e-11
1.61962e-10
6.57726e-06
2.24449e-05
6.15841e-08
6.50289e-08
3.60273e-09
1.14078e-09
1.39986e-08
-2.46593e-06
-1.62144e-06
5.81121e-09
7.77716e-12
8.0811e-07
5.50245e-07
-3.96066e-07
2.2748e-07
1.5776e-09
5.04949e-06
1.4138e-11
3.0161e-07
1.52447e-05
-1.66542e-05
-4.47159e-09
9.51335e-09
7.52196e-06
7.50743e-11
0
-1.84572e-07
3.49483e-08
-2.63839e-07
3.72223e-07
9.77867e-07
-1.22476e-07
-1.47886e-06
1.71821e-05
-6.36918e-08
5.57542e-08
5.0883e-07
1.48329e-09
8.04639e-09
1.35241e-06
-1.25342e-06
2.03973e-07
0.000473614
0.000182842
-0.000833458
1.18277e-07
-2.63113e-08
2.13843e-07
-3.48924e-06
1.29539e-08
0
-5.41788e-12
9.25009e-13
4.97135e-06
-2.57029e-06
4.73417e-06
-4.02421e-10
1.01237e-08
4.16898e-09
-2.24864e-10
1.74554e-10
5.87619e-07
-1.9291e-05
8.53661e-07
-9.34414e-07
-1.38425e-07
0.000540619
-0.000564054
3.4542e-08
3.2499e-07
5.70639e-06
-4.17073e-06
2.63948e-07
7.11194e-07
8.70113e-05
0.000740877
3.60626e-06
1.70681e-07
-4.20597e-07
3.67874e-08
-6.41024e-07
1.08013e-05
-3.02162e-06
8.1508e-06
4.80733e-05
-2.06116e-10
2.02501e-09
-1.25021e-07
8.2429e-09
2.89087e-09
-1.01943e-09
8.73154e-11
3.83686e-06
4.17729e-10
1.06108e-09
2.50945e-06
-3.31818e-06
7.26765e-08
2.26599e-09
1.63499e-09
5.43536e-10
-3.66654e-07
7.15268e-06
1.83437e-10
-1.20092e-06
-2.70509e-09
7.81131e-08
5.90519e-06
-6.46453e-06
0.000355684
-0.000355684
1.38045e-07
0.000564042
-0.000495366
-1.4222e-07
1.34126e-09
2.48167e-09
3.16643e-10
0.000113822
-3.10507e-08
-5.52483e-07
4.19996e-08
3.58151e-08
4.22817e-07
6.4272e-07
2.63119e-08
6.5703e-09
2.44906e-10
-3.57973e-11
2.89316e-06
-4.79243e-07
-4.63192e-08
1.62327e-09
4.21476e-12
1.04137e-11
-3.81647e-08
1.37986e-08
2.1631e-07
0.000435865
0.000554645
2.38122e-05
-4.33537e-05
2.17756e-10
7.05404e-07
1.21598e-11
6.17577e-10
-3.52498e-09
6.30295e-07
-9.33944e-07
3.79714e-10
2.66189e-12
0.00117436
4.08672e-07
2.33409e-06
2.18752e-06
-4.9118e-07
3.89369e-07
-1.78965e-05
1.752e-06
-7.59823e-07
-4.10766e-08
1.10612e-08
-9.97232e-11
-9.6488e-08
-1.19755e-05
-0.000274949
0.000198998
9.64827e-08
-2.12636e-13
4.2745e-14
3.1318e-07
1.18112e-06
-2.32036e-07
4.94429e-12
2.22993e-10
-7.38815e-07
6.19419e-07
1.37845e-10
1.17245e-07
3.81023e-11
5.19372e-10
-3.4086e-09
1.49567e-08
3.36789e-06
-7.25751e-06
0.000122394
-8.83798e-05
3.51549e-06
2.19742e-07
1.18755e-06
-7.06227e-07
8.1246e-07
1.26781e-06
-1.06245e-06
7.6892e-09
2.32298e-09
-3.71886e-07
1.75073e-10
3.54741e-08
5.97957e-06
-2.14125e-06
-8.09154e-06
1.565e-08
6.47751e-05
0.000463929
2.33728e-09
1.79906e-09
3.39393e-08
-8.58764e-06
2.33312e-06
4.352e-06
6.62332e-05
4.10657e-10
5.68356e-10
8.40733e-09
9.34683e-10
-3.48576e-13
3.20211e-07
-0.000272432
9.19157e-05
0.00105736
5.52244e-11
-7.7988e-11
2.68768e-05
3.84498e-09
1.77861e-07
2.36529e-05
-2.38986e-06
-1.09347e-05
1.301e-09
-3.75172e-09
4.2279e-08
-9.95995e-05
0.000217051
-0.000117452
6.05081e-06
-3.30589e-06
1.2605e-05
-1.803e-07
-3.13601e-08
4.71637e-09
1.00283e-08
1.02588e-06
-1.08957e-07
5.54541e-07
-1.11048e-06
6.43866e-07
1.55738e-11
3.86834e-12
5.88129e-07
3.06836e-13
7.55612e-08
3.12892e-08
-8.08509e-09
1.31789e-10
1.89974e-11
2.57267e-06
-2.63734e-06
0.000367252
-0.000655326
-2.98202e-08
-0.000556126
0.000473343
-0.000361777
4.94624e-12
1.29574e-08
1.27026e-11
4.4037e-06
-1.31544e-06
2.8908e-10
1.24146e-09
-7.5997e-09
-6.82423e-08
0
2.98413e-07
3.51623e-08
3.01573e-10
-8.48598e-11
1.60456e-07
2.26352e-06
1.64084e-08
1.06445e-06
-1.69857e-05
-6.8592e-06
6.73845e-06
-4.06971e-06
1.25155e-07
9.97604e-08
-8.7518e-10
1.01596e-08
0.000296621
0.000736093
1.61871e-10
-3.62339e-11
9.97451e-06
-1.65094e-08
8.25167e-08
3.7779e-10
5.463e-10
0.000276532
2.8828e-06
-2.93157e-06
-3.12944e-10
1.47694e-08
-2.31237e-06
2.85142e-08
1.14313e-07
-1.30841e-13
-6.66401e-12
1.24986e-11
-3.07811e-10
8.56163e-10
1.18885e-10
-7.24675e-11
4.08692e-06
2.45123e-09
2.05784e-09
1.56945e-06
-2.83132e-06
0
1.09131e-07
-1.84477e-07
1.79626e-07
5.62023e-11
-1.84479e-11
3.37856e-08
5.27109e-05
-2.513e-05
-1.96039e-10
1.94749e-12
4.07808e-06
-3.21379e-09
6.9224e-11
-2.18321e-07
-7.25684e-09
1.75923e-08
2.87156e-07
8.21839e-08
-6.14253e-09
4.27949e-07
1.99311e-10
9.70205e-11
7.69454e-09
1.33108e-06
4.10884e-07
8.90378e-06
3.79873e-06
-5.15917e-08
3.6875e-08
5.18543e-08
-1.42711e-10
1.58581e-09
8.08308e-07
5.89429e-06
-6.1242e-06
2.14729e-05
0.000127579
0
4.12987e-06
1.74026e-05
5.35385e-08
8.52627e-07
-4.37361e-13
5.99979e-12
2.2421e-06
5.33823e-06
-1.07783e-05
4.01468e-12
1.24938e-09
9.81518e-08
-5.40643e-08
6.03748e-08
3.16627e-06
-3.18074e-06
-2.90921e-07
1.96304e-06
2.41175e-06
0.000525745
3.88369e-07
3.33435e-06
-3.59924e-06
2.0719e-11
-1.44576e-11
1.34723e-08
2.96066e-11
-1.1085e-11
-2.15488e-08
-4.91894e-06
-2.16148e-06
4.47435e-07
2.27754e-07
6.26297e-11
0.000468097
0.000590224
0.00119697
1.04896e-07
7.58772e-07
-9.77239e-07
2.08674e-08
2.45315e-06
-1.61828e-05
1.29242e-09
-8.78208e-09
2.21291e-11
1.01472e-06
-5.90091e-09
1.25114e-07
3.16901e-06
-3.12011e-06
3.27174e-10
5.107e-10
8.55282e-10
3.24626e-11
2.90343e-07
-1.05685e-05
7.83337e-06
1.76354e-06
4.77578e-07
-1.58156e-06
1.5867e-07
3.64729e-06
1.47369e-09
1.11227e-07
6.66553e-08
1.07907e-11
-7.18686e-06
1.18295e-05
-4.47579e-09
2.31641e-09
-1.03945e-07
9.33221e-06
-3.29864e-06
-3.2778e-11
3.10881e-06
3.65087e-07
-3.11434e-08
1.98243e-07
-4.74383e-08
4.38885e-07
8.22149e-08
8.75768e-05
0.000227501
-9.74861e-09
3.1341e-08
0.000171012
2.24926e-06
2.71863e-06
-1.34278e-06
7.95468e-11
1.64743e-11
-9.74442e-12
0.000334493
0.000341425
-1.94791e-08
6.79439e-08
1.71936e-06
2.71533e-07
1.20016e-08
5.83848e-10
-7.25446e-09
6.40506e-12
-1.16455e-12
5.41976e-07
1.8298e-06
-6.59568e-05
-0.000137911
-1.05002e-05
2.73405e-05
-1.53066e-05
-8.94823e-06
9.94606e-06
3.45357e-06
-3.74028e-06
-1.7671e-14
8.57462e-07
1.32393e-11
1.69018e-13
-1.58693e-06
1.62641e-06
2.19886e-08
-1.0854e-08
3.44244e-08
-3.94972e-07
-1.871e-10
9.19261e-11
-1.81967e-08
3.72275e-08
1.38186e-11
6.85065e-09
5.04768e-12
3.03223e-06
2.40062e-05
2.64696e-06
-4.79191e-08
4.67233e-06
3.93129e-07
-4.8277e-07
-4.34754e-05
2.18772e-06
-6.74169e-09
6.29606e-08
-3.29875e-05
2.1954e-07
1.03086e-05
7.56721e-06
-1.57169e-05
-1.1772e-09
1.66777e-09
2.02356e-10
-1.10602e-10
1.77498e-07
1.25408e-05
2.50411e-10
-1.93681e-10
-0.000540619
-1.61422e-05
1.3209e-07
1.03261e-05
-6.17494e-06
1.91056e-06
-2.30112e-07
1.056e-07
1.11593e-09
1.28225e-05
-1.76033e-07
8.70302e-07
4.69674e-06
1.28806e-05
-1.02307e-05
2.66606e-06
5.03186e-11
-6.17269e-11
1.59623e-06
-5.40007e-05
-2.9538e-07
1.29203e-08
7.49205e-10
-4.45155e-10
0
2.75328e-09
1.70188e-06
3.41026e-06
2.48326e-07
2.52167e-06
3.28289e-06
-6.77238e-06
-0.000934854
0.0011806
1.85786e-06
2.25048e-08
0.0002547
1.91365e-05
-1.89259e-05
-3.3178e-06
6.20567e-06
5.23088e-05
-6.41194e-05
-1.74948e-08
2.8564e-08
9.22642e-07
-3.21206e-12
5.71784e-13
-0.00019644
0.000111227
8.52136e-05
5.25535e-12
1.26424e-07
3.27274e-08
-1.35522e-08
2.32235e-08
6.51773e-09
-1.12166e-05
6.36544e-06
0
2.09484e-10
-1.65749e-11
5.04207e-07
-5.10969e-06
-8.79517e-13
1.66116e-12
5.84081e-10
7.42018e-05
-6.51197e-05
1.87933e-08
0.000174149
-0.000156387
2.43678e-05
0.00025512
0.000107128
-7.98074e-12
2.66301e-06
-2.61558e-06
1.9964e-06
-3.05582e-06
6.30018e-06
4.28588e-06
1.9999e-06
0.000461823
1.76538e-08
6.23202e-11
-2.48633e-11
-2.85516e-10
3.43992e-05
1.25247e-07
1.35098e-10
9.81278e-11
1.24787e-05
-2.20857e-07
8.67088e-07
-4.15864e-08
-4.84992e-12
5.9419e-12
-6.62689e-07
3.26488e-06
-0.000345303
0.000935575
-9.84472e-07
5.61988e-08
6.6729e-09
3.21865e-08
-7.88631e-08
3.09201e-07
4.62965e-05
-5.06842e-05
-1.00271e-06
3.29568e-06
1.07301e-07
-8.206e-11
1.02935e-11
-1.03575e-11
-1.01576e-08
2.02373e-08
7.15786e-05
-0.000144438
7.583e-08
-1.31795e-06
3.23569e-06
2.4198e-05
-1.74141e-05
4.62349e-11
-1.85242e-09
1.04757e-08
1.15347e-11
2.86953e-06
0
1.92685e-11
-1.42599e-11
-1.09905e-06
3.03717e-06
-2.46425e-08
1.27779e-07
5.25425e-05
-0.000152142
-1.10577e-06
1.91197e-08
0
-6.71955e-07
2.65812e-06
2.23266e-06
1.04376e-08
0
0
5.91984e-08
5.63453e-08
-8.631e-05
-8.26073e-09
2.77735e-08
8.59834e-07
1.36747e-05
-8.60677e-06
-0.000274993
-3.17342e-10
1.19589e-09
2.98428e-09
-1.45777e-06
2.32004e-06
-2.4691e-05
2.04199e-09
1.92448e-06
-9.15506e-09
5.45404e-05
-5.84603e-05
3.8132e-06
-2.65341e-08
4.34803e-08
1.17781e-11
-1.14506e-05
5.32923e-06
5.98236e-09
-6.61988e-08
2.73907e-08
9.29237e-09
1.86256e-06
0
2.68705e-12
1.89404e-06
1.65832e-06
9.55513e-08
-7.45418e-08
4.04205e-11
-3.64108e-11
-0.00114841
0.00126467
4.08934e-05
-1.07719e-07
4.32544e-08
-5.38215e-07
2.52124e-06
5.12473e-11
-9.31909e-11
2.65868e-06
5.96604e-07
-2.35318e-12
2.32432e-06
3.27077e-08
2.40507e-06
5.77763e-10
-1.31072e-09
9.22721e-11
1.4429e-05
-1.21026e-05
0.000158903
-0.00011517
0.000189542
-0.000117963
-2.99064e-11
8.03612e-08
-2.43807e-09
2.52658e-06
7.14293e-05
2.48878e-08
2.97171e-05
-2.30168e-05
-0.000108613
-2.93989e-07
2.11664e-06
1.13328e-06
1.7322e-07
-6.04203e-06
-5.57622e-08
2.79317e-07
1.06324e-06
0.000466863
-1.47466e-05
7.03994e-05
-0.000344227
2.95745e-06
-2.87289e-06
-4.33201e-08
7.82658e-08
1.94732e-07
3.89836e-07
-1.19528e-07
7.49727e-08
0.000227458
-0.000300002
2.70328e-05
5.24059e-10
-2.12401e-11
4.93885e-08
-1.09853e-07
-0.000935983
0.000970358
9.50552e-09
6.17768e-05
-6.6003e-05
-1.26684e-08
1.14493e-07
-4.814e-09
6.38069e-08
2.83871e-11
-4.50045e-12
4.63197e-08
8.90867e-08
-6.1672e-08
1.76304e-06
-2.2793e-09
0.000172693
-0.000120151
7.65971e-12
-2.43625e-06
-6.27349e-08
6.37081e-08
2.10601e-08
5.13792e-12
7.56752e-13
-4.00768e-08
4.61664e-07
4.61788e-09
-5.74578e-08
8.60456e-08
2.82555e-05
-8.51602e-08
1.97162e-07
5.94932e-08
-4.85489e-08
3.13356e-07
-1.90042e-09
-4.546e-08
4.2491e-08
-8.56219e-07
9.92221e-07
8.33142e-06
-0.000466207
3.09408e-08
-1.12121e-05
3.10334e-06
-1.50327e-08
0.00057008
-0.000537643
6.97964e-08
7.06503e-08
1.965e-11
0.000325138
-0.000354611
1.61924e-08
3.38995e-08
-2.80452e-08
-4.30246e-09
2.04593e-06
1.25515e-11
-1.41017e-11
1.98522e-08
-2.36699e-06
-5.16477e-06
1.62606e-11
-1.35802e-11
8.52098e-09
1.99043e-06
-2.17983e-11
1.66635e-11
-2.45188e-05
1.27602e-05
-8.53964e-06
-2.07385e-05
-1.56362e-10
1.0261e-08
-5.3424e-05
0.000115851
2.66894e-08
-5.15372e-07
6.31104e-07
2.09341e-10
-5.28179e-10
-4.56661e-09
-2.1023e-05
-4.98609e-12
-4.17085e-08
5.94926e-08
1.05632e-07
-1.45313e-06
1.12157e-06
4.89652e-06
-2.07604e-05
-8.89962e-07
9.53462e-07
-7.13984e-05
6.78654e-05
-0.000199667
-0.00132941
0.00132223
7.8593e-05
-0.000230735
2.95689e-06
-5.82539e-05
-1.93559e-07
6.9549e-07
-5.14225e-08
1.64789e-07
0
3.19895e-07
1.02635e-07
-2.01724e-07
1.71843e-08
2.00247e-11
3.4425e-12
-2.85764e-12
-3.09755e-12
4.89618e-08
2.08414e-07
0.000171368
-9.27753e-05
3.93288e-08
2.17409e-05
4.93262e-08
-0.00053462
0.00054603
0.000647865
-0.000873698
-0.00055736
0.000469977
2.55945e-11
-1.79785e-11
-0.000939174
0.000949167
-0.000112042
-0.000185221
7.00509e-05
-0.000382517
0.000522972
-3.13367e-07
9.47045e-07
0.000117963
-8.9708e-05
0
-3.22801e-08
3.94178e-08
-2.39765e-10
3.56509e-10
-0.000598704
0.000677433
2.39909e-05
-9.10115e-06
-0.000719179
0.000765295
1.57085e-06
8.96404e-05
-3.69742e-05
-7.43932e-05
-0.000801566
0.000510206
4.0796e-07
-1.82419e-06
-4.7202e-05
-8.16936e-07
8.33599e-07
-4.90674e-07
-0.00014541
0.000245428
9.42987e-12
6.88661e-12
0.000286499
-0.000335545
1.20078e-11
2.4598e-09
-1.71774e-07
2.1176e-07
6.36567e-08
-1.4928e-07
2.81457e-07
5.22899e-11
-3.36169e-11
1.43551e-05
-1.21462e-05
-1.99286e-06
3.79996e-10
-6.50773e-11
0.000555027
-0.0005754
1.66791e-07
-1.11976e-07
-0.000125169
9.52796e-09
-5.43435e-08
3.94828e-06
-7.01078e-07
-4.67435e-12
0.000121836
1.77215e-07
5.12174e-05
-0.000386514
0.000515143
-1.81277e-07
1.36318e-06
-1.38335e-06
-1.95745e-11
-2.86917e-08
5.40461e-08
8.3224e-09
1.07831e-05
3.59616e-06
-3.64836e-06
3.39771e-11
8.99444e-07
-1.68046e-07
1.3288e-07
0.000970407
-0.000417684
-0.000721573
7.56111e-05
-7.2657e-05
3.56898e-06
-2.35196e-06
-1.67645e-06
-4.61566e-07
7.43403e-07
8.20242e-08
3.64983e-10
-1.09683e-09
0.000599055
-0.000621943
-2.81559e-14
-9.66858e-12
-3.95478e-09
4.75149e-07
0.000713766
-0.000804001
5.50074e-09
-1.5319e-08
3.18434e-09
-7.06428e-05
6.36609e-07
-2.70826e-06
3.5546e-07
1.53354e-07
2.63538e-08
-0.000589252
0.000672226
6.29244e-08
1.04156e-09
9.61924e-10
8.42646e-07
0.000877154
-0.000956356
3.39874e-11
-3.67302e-11
2.47668e-08
1.45628e-07
5.55271e-11
6.8071e-12
7.3444e-07
9.56474e-09
-4.89495e-09
2.19342e-08
-2.71616e-11
1.47097e-06
5.52457e-05
-0.000167288
2.24634e-07
0.000125174
-6.9928e-05
8.02795e-09
0.000193678
1.21635e-08
7.38468e-05
7.26597e-05
-7.3481e-05
-1.3198e-08
5.91994e-08
8.9708e-05
-3.84906e-05
0
-2.22196e-10
1.64674e-06
-3.38475e-07
3.23984e-05
-0.000944252
0.000886197
0.000139146
-0.000605352
1.18132e-09
-1.08705e-09
-3.39012e-07
-2.63624e-07
-9.58583e-05
-7.96925e-07
1.18801e-07
-4.41037e-07
0.000955064
-0.000931345
4.58142e-09
-4.02699e-09
0.0014927
-0.000170424
3.20946e-10
-3.46091e-10
5.25756e-09
-1.65166e-07
-3.82544e-08
-4.47233e-10
2.46475e-08
0.00115717
-1.20978e-06
3.20358e-06
-0.000691235
0.000674709
1.24263e-10
7.13511e-10
-7.42607e-07
1.65383e-06
6.82915e-09
6.97323e-10
-0.000149064
5.32057e-05
-1.2805e-07
2.44634e-07
-0.000166043
0.000101827
2.97369e-10
-4.17077e-10
-9.32237e-11
-1.04215e-07
1.42583e-07
5.70678e-09
7.34911e-05
-7.51795e-05
0
-3.08506e-10
8.91263e-07
-6.80387e-07
0.000929367
-0.000907191
7.88489e-07
6.00541e-06
-8.31926e-10
1.61578e-08
-4.12568e-09
7.08346e-08
5.23048e-08
-8.20341e-07
6.51357e-07
2.7075e-05
-1.5269e-05
8.90927e-05
-1.15986e-07
9.91407e-07
1.44494e-08
-4.23951e-09
1.68748e-10
-6.66233e-10
6.69016e-05
-6.818e-05
-7.87272e-08
3.84906e-05
-6.0922e-06
-7.27844e-05
7.20893e-05
3.30431e-09
-4.63138e-09
-4.22229e-09
2.42286e-09
-7.07964e-05
6.9554e-05
0.000897265
-0.000600669
0.000674678
-0.00055952
-7.9013e-05
-6.55815e-05
6.60097e-05
5.0652e-10
2.08394e-07
4.23916e-07
-4.14766e-06
9.87931e-09
-1.27054e-08
8.22814e-08
-5.22861e-07
1.96337e-09
1.62441e-06
1.77677e-10
1.98788e-07
4.90114e-08
-0.000646918
0.000462118
-2.13709e-07
4.55048e-08
-7.26614e-05
7.5234e-05
-7.53294e-05
5.99542e-07
1.63095e-07
-5.35909e-10
-9.06204e-10
-1.23829e-07
5.19344e-07
-1.06203e-06