/*--------------------------------*- C++ -*----------------------------------*\
  =========                 |
  \\      /  F ield         | OpenFOAM: The Open Source CFD Toolbox
   \\    /   O peration     | Website:  https://openfoam.org
    \\  /    A nd           | Version:  8
     \\/     M anipulation  |
\*---------------------------------------------------------------------------*/
FoamFile
{
    version     2.0;
    format      ascii;
    class       volScalarField;
    location    "0.75";
    object      alpha.water;
}
// * * * * * * * * * * * * * * * * * * * * * * * * * * * * * * * * * * * * * //

dimensions      [0 0 0 0 0 0 0];

internalField   nonuniform List<scalar> 
1924
(
0.0733644
1.14539e-06
6.59527e-06
3.51585e-06
5.35253e-06
2.53762e-06
8.94278e-06
5.89886e-06
2.4813e-07
8.65075e-06
6.90268e-08
2.72524e-07
0.00225087
8.47948e-08
1.17211e-07
1.31702e-07
0.0105953
2.93776e-07
0.474526
1.09333e-07
0.641185
2.41735e-07
0.00759835
3.57317e-07
1.03766e-07
0.00304849
0.000738309
2.27672e-06
1.82775e-05
8.29856e-08
0.000459502
1.94561e-07
0.287952
0.0180409
2.56096e-05
0.022674
1.87158e-08
0.000183069
8.48808e-08
0.0105531
1.23217e-08
0.370541
1.21587e-08
0.0157481
0.0149955
2.37256e-06
2.35244e-06
0.000446421
1
0.999997
0.485209
0.00221009
2.79407e-06
0.745803
2.34875e-06
1.56581e-05
0.189157
0.00657131
0.00413267
3.84098e-06
0.00915135
1.36136e-07
0.524051
1.58972e-08
0.145151
2.89792e-05
0.00166593
0.00320443
4.69224e-06
0.993932
0.0020253
1.2026e-07
1.06327e-07
6.79559e-08
2.42767e-05
6.90739e-05
1.25855e-05
0.000310152
8.66066e-06
0.943632
0.00103212
6.5739e-06
1.30626e-07
0.00871502
0.450197
0.00761176
0.000143146
2.3913e-07
1
0.00895382
0.00178586
0.00605684
2.37256e-06
2.32785e-06
0.00921315
0.0102823
1.84716e-05
0.00103383
2.63517e-06
0.0124316
0.000126021
0.00321822
2.63517e-06
0.00385677
4.3776e-06
0.000861335
0.000219222
0.00208978
5.17387e-05
5.02279e-05
2.10381e-05
0.000228355
8.47431e-05
8.29561e-08
9.52115e-06
0.205029
1.01465e-06
1.13038e-07
1.67807e-05
1.07011e-05
0.553743
1
0.999927
0.00801336
0.000106451
0.000360031
0.0010802
0.00085764
0.000228355
1
1.96262e-05
0.000218555
6.90739e-05
1.09176e-07
0.00217643
0.000477082
0.000219222
0.00022401
2.18397e-06
6.85483e-05
0.000107877
1.36608e-07
0.00607658
0.437862
6.35696e-07
1
0.00301714
0.00498872
1.70962e-05
1.09103e-05
1.28216e-06
1
0.000971845
6.5678e-05
5.67117e-07
1.5909e-05
1
0.000173122
2.80766e-05
0.00109876
8.31303e-08
6.77693e-05
2.37691e-07
1
5.59176e-05
0.000478635
8.42976e-06
1
1.25855e-05
0.00020566
2.45935e-05
3.60524e-07
0.000859933
0.000737722
6.18513e-05
0.000448803
8.17705e-08
0.0161911
0.0225583
1.99708e-07
5.11235e-05
-1.9155e-07
2.9575e-06
0.000100915
1
2.29393e-06
0.00123063
1.58009e-05
1.99135e-05
1.36203e-06
0.00301714
2.06567e-06
2.90197e-05
1.04858e-07
9.42355e-05
1
0.00363034
4.98258e-05
4.58233e-05
0.00104742
0.493618
2.26006e-06
8.35923e-05
4.09834e-07
2.66427e-06
2.8041e-05
9.46028e-08
5.62442e-05
0.00039676
0.00794804
1
0.000158211
-6.02385e-07
6.67571e-05
0.00574913
0.000859933
0.0001514
0.00233772
7.58461e-08
0.000843741
2.8905e-05
1.2895e-06
3.42288e-06
9.07856e-07
2.17449e-08
0.00353325
3.14723e-05
0.000787883
1.43087e-05
0.0061611
0.00797827
5.06157e-06
0.00253923
0.018356
0.00323722
0.0080225
0.000444337
1.04978e-08
2.49749e-06
1
1.89458e-07
0.00299358
0.000697667
4.36693e-05
0.0339762
0.000217311
1.0487e-08
6.27229e-05
0.00017029
0.000659761
0.0098437
1
8.8985e-07
2.91779e-05
9.80073e-05
7.2098e-06
0.00674211
0.00618809
4.3168e-05
8.42057e-09
0.000127324
9.04453e-07
0.000880486
0.000620134
1.46042e-07
0.000222143
0.834742
0.000755587
2.32493e-06
2.61622e-06
0.00618414
5.21958e-05
3.06813e-06
0.000587737
2.83689e-05
0.00103638
2.21055e-08
0.000194955
2.83279e-05
0.00610076
0.481697
1
7.58743e-06
6.71071e-07
0.526487
1.50348e-06
4.31981e-05
1
8.78254e-09
0.00617329
8.42816e-07
6.15414e-08
0.00234036
0.00099624
0.96222
0.000105592
1.49349e-06
4.31463e-05
0.000835631
0.000451508
1
1.10418e-06
0.00101409
3.85691e-05
6.23418e-08
4.59266e-07
0.832432
0.00101915
0.00455822
2.85959e-06
6.45876e-05
0.0154264
9.11001e-07
0.000445344
0.000296303
0.0978233
9.69686e-05
3.05359e-07
5.52733e-08
1.66287e-05
4.88799e-07
0.00618549
9.17975e-07
4.15198e-06
1.11036e-07
0.000641862
0.00605602
4.41358e-06
3.81694e-05
6.15543e-05
0.00617101
0.00125022
0.00162813
6.50751e-08
0.000774427
0.000481671
0.00016048
3.01879e-08
9.82802e-07
1.89704e-07
0.000618789
1.14818e-07
9.56755e-08
4.31463e-05
0.000293318
1.15276e-07
0.0724238
0.000955114
0.00921251
1.79381e-08
1.21587e-08
0.0345813
0.0114179
0.00100578
0.00202824
0.000617317
1
7.06266e-08
0.000882451
0.0102823
0.000595009
0.000409063
0.00101253
9.33674e-05
1.21587e-08
1.14417e-07
4.27129e-05
0.00616823
1.12168e-06
6.53556e-07
0.00101365
1.82945e-06
2.33564e-07
6.11476e-07
0.00674211
0.00801472
0.000658361
1.58061e-06
9.56755e-08
0.00102272
1.12655e-07
0.000622652
0.00403195
1.43338e-06
0.00618992
0.000643802
0.000785912
0.00085177
0.00674211
2.14637e-08
0.00492713
9.97523e-05
0.000803016
0.000309057
3.51742e-06
8.78687e-05
0.00673981
9.56755e-08
0.000451451
1.12824e-07
1
0.00083886
6.09479e-05
2.32785e-06
1
0.000193511
0.00102676
0.000927239
4.05009e-06
0.00251032
4.27916e-06
6.97913e-06
6.83191e-08
1.6884e-08
1.16544e-06
0.00025711
0.000536478
0.000841674
0.00316245
3.2172e-05
0.000615996
0.00625079
0.000846986
0.000469249
0.000321998
0.00048304
0.000852912
1.16805e-09
2.71947e-05
0.00125703
0.00019224
0.000772023
0.00116929
4.99994e-05
3.58988e-06
0.00146254
0.000196214
0.988205
2.27914e-06
1.64777e-05
0.00617785
0.00670088
1.3941e-06
0.00717091
0.00107834
0.00118903
8.35851e-06
0.00100385
7.17881e-06
0.000279413
1.51645e-06
1.52267e-05
9.82802e-07
0.000333586
0.00673838
3.17829e-06
7.60994e-05
0.000846944
4.70883e-05
1.11671e-07
0.000617459
9.56755e-08
0.0361245
9.93854e-06
7.67857e-05
4.93469e-05
0.000679061
0.00133785
2.86622e-06
7.94623e-06
0.000339011
6.16764e-07
3.76706e-06
0.000123669
0.00636178
0.000617317
1.01578e-10
7.06216e-08
0.0010748
1.11671e-07
2.63517e-06
5.8869e-06
3.51526e-05
0.000771163
8.40309e-06
0.000322235
8.63814e-07
2.12183e-06
0.00118219
0.000156956
0.988508
0.000415204
3.4353e-05
1.60463e-05
8.63417e-05
0.000148701
0.000109836
3.75053e-05
6.1865e-05
0.000890057
0.000284794
0.000809623
0.00612625
0.00022944
0.000478569
0.000119004
0.000846944
0.00641115
2.38977e-07
5.50618e-05
0.000645291
0.000184707
1.95922e-05
0.00173573
3.59096e-05
6.99218e-05
9.91018e-08
1.9868e-07
5.93182e-06
1.11671e-07
1.85913e-05
0.000846944
0.000676062
7.30676e-05
0.00242242
3.25924e-06
0.00064539
0.00917191
0.00120843
0.00185942
8.72235e-06
6.97256e-08
7.29654e-08
0.0124109
8.27294e-05
2.24979e-05
3.27168e-06
0.00149097
0.0368459
0.00338929
3.59396e-06
0.000399876
0.938676
0.000640938
5.55062e-05
7.78485e-07
1.59537e-07
1.00428e-10
0.000815674
0.0010335
6.06743e-07
2.69523e-06
1.12755e-07
5.30134e-05
1.73916e-06
0.00390343
0.0106305
0.00177388
0.00543895
3.04721e-10
0.00647641
8.72299e-06
0.000760931
3.37796e-06
0.000247535
0.00395536
0.000671277
1.32471e-05
2.89202e-06
2.89314e-07
0.000149312
0.000318625
0.00183348
1.9589e-05
0.00109178
7.47785e-05
0.0127535
0.000802307
5.50299e-05
0.00428469
1.02655e-07
5.20985e-06
5.96229e-06
3.48234e-05
0.00168694
0.577031
5.5293e-05
0.0196284
0.000205412
5.68174e-07
2.05099e-06
3.54462e-05
0.226803
0.00158724
0.0942707
5.50089e-05
2.15168e-05
0.000861335
1.883e-05
8.9501e-06
0.049398
0.00032773
0.00292024
9.7367e-11
6.06037e-08
8.30393e-08
4.4651e-06
0.000627616
0.00257429
0.0151816
0.000714374
0.000565941
0.0124227
0.0002109
5.14781e-07
0.000168322
0.00290191
0.00260438
0.0015801
1.04603e-10
5.50763e-05
0.000213111
1.06431e-06
0.00650226
3.38926e-06
0.000260799
0.00857119
2.46435e-06
2.81817e-06
0.0176055
1.11671e-07
6.05791e-07
0.000888286
0.000255864
4.17864e-05
0.00165692
6.04406e-07
0.00847849
7.46581e-05
5.51174e-05
2.15052e-06
3.71291e-06
5.21118e-08
8.23661e-05
6.44988e-05
0.000846944
0.00628668
7.44535e-05
0.000254165
5.87177e-06
8.72235e-06
3.13304e-05
1.56581e-05
0.00292571
0.0085549
5.09324e-05
8.79998e-06
0.000669337
1.06484e-06
0.0196244
0.00253807
0.566258
0.0010503
0.000324197
7.47785e-05
3.78364e-11
0.00449099
1.75409e-07
0.000112377
5.07947e-08
5.2138e-08
0.000666105
0.990354
0.00103212
0.000845513
0.000221727
7.80094e-06
1.15295e-07
0.230341
0.00855452
5.50323e-05
5.50409e-05
7.45285e-05
1.82205e-05
0.00650924
7.56363e-07
4.0726e-07
0.999945
5.50089e-05
0.0832088
6.79262e-08
0.0026837
7.02701e-06
6.04406e-07
8.72299e-06
0.000841298
0.00857889
0.000987931
5.0799e-08
0.00651013
0.000392737
0.000199847
0.00024648
0.000214064
0.00157856
0.000252321
6.55165e-08
7.94237e-07
5.50089e-05
8.96826e-05
9.72352e-05
0.565465
5.91013e-06
1
1.01333e-06
2.63517e-06
4.67698e-05
4.46037e-05
0.000845513
0.424043
0.001034
8.84017e-07
0.000519839
0.00855452
1.12083e-07
0.992835
0.00801336
0.00157856
0.00112366
5.55062e-05
5.19866e-05
0.0196248
3.10489e-07
0.00378934
1.91262e-06
9.38031e-05
2.87753e-07
0.000257102
0.000224622
0.000201425
0.00158724
2.53066e-05
0.000161645
0.652181
1.87233e-06
0.00639765
5.06903e-08
0.00855452
9.01029e-05
0.000300032
0.00651013
1.63686e-08
7.36767e-06
5.62941e-09
1.00004e-07
0.00292024
2.26851e-09
0.00157856
1
6.60071e-05
7.74505e-07
4.26342e-06
2.8835e-05
0.000273659
0.00651013
0.0163646
8.21126e-07
5.06902e-08
0.00857477
0.000199207
1.54719e-07
7.34562e-05
0.0347801
2.14588e-06
0.000200849
5.49373e-05
5.94373e-05
9.98063e-07
0.0085549
1.64245e-08
0.000516537
0.000923305
5.78308e-07
0.00286079
3.39623e-07
8.56943e-05
1.2122e-06
0.000257089
0.000778347
0.00236189
0.0196284
2.03151e-05
8.95918e-05
7.28619e-06
0.000874151
0.000388999
5.49392e-05
0.924245
0.000257072
0.000141633
0.638055
0.00253173
1.45309e-05
4.70153e-11
0.000110975
0.000265922
3.85312e-09
6.44672e-07
4.44242e-06
5.06903e-08
0.000778751
5.50763e-05
0.00539681
0.65218
0.000234085
0.00855443
0.000225022
0.523685
0.0035726
5.80497e-05
0.00027193
0.0029235
0.000775305
0.0700833
2.70844e-07
5.61614e-05
5.62393e-08
7.77951e-08
1.20273e-07
0.0085543
1.14657e-07
0.000101182
2.35224e-05
2.56659e-06
0.00427124
8.18056e-07
0.000789739
9.27243e-05
0.00033989
0.999998
2.93174e-06
0.603251
9.34608e-05
1.01333e-06
1
0.000107325
0.000236973
7.6478e-05
0.000225022
2.02409e-05
2.99275e-06
1.68508e-08
0.0168746
0.000367911
1.1604e-07
1.63748e-08
1.69905e-05
7.47002e-05
0.41874
0.0019224
4.20733e-08
0.000288725
1.64245e-08
2.41033e-07
0.00046685
3.51933e-07
0.810443
0.000552686
0.00940987
0.0196284
0.000338419
0.000234085
0.0161932
1.59075e-07
1.059e-05
2.3699e-08
9.57866e-05
0.0172461
0.999587
0.00018062
3.78364e-11
0.00021488
0.000225022
1.60102e-05
1.63295e-08
0.00233437
1.50872e-07
1.00581e-06
1.42022e-08
5.26359e-07
2.68935e-06
0.00033657
0.375749
0.00014708
6.15735e-05
5.50562e-05
5.49887e-05
1.60979e-07
0.0015442
1.28335e-07
0.00855418
0.000752831
6.52282e-06
0.43164
2.6207e-06
0.00190809
0.000788749
0.0248792
7.3966e-07
0.000788749
6.42996e-07
1.17454e-10
5.64568e-05
0.513549
0.903522
1.15758e-07
0.0245207
1.03774e-06
7.47002e-05
0.000165685
0.00209184
1.1604e-07
3.01651e-06
1
0.000193438
0.0149616
0.000103003
0.00101373
2.91846e-07
3.42297e-05
2.99572e-06
6.87419e-05
0.000588801
0.00336839
1.80706e-08
0.000458098
1.55242e-06
2.02731e-05
2.9336e-05
1.37983e-08
8.9022e-05
0.951144
0.000336349
0.994072
0.713092
1.6362e-08
2.99572e-06
2.30499e-08
0.00957433
1.42904e-07
1.46442e-05
0.000350032
0.0137078
0.000159117
3.94049e-08
0.326712
0.000468107
0.515864
0.0085543
0.000214327
0.177708
0.000264611
9.40943e-05
7.38127e-08
0.821611
1.51833e-07
0.000280712
5.31057e-06
6.40791e-07
0.29475
9.31866e-05
6.27606e-06
0.00142647
6.43027e-07
2.96241e-05
3.77148e-11
1.62689e-08
6.42733e-07
7.69769e-08
0.00294635
1.4581e-07
4.13861e-06
0.00515245
3.0819e-05
0.000144949
1.37976e-08
3.80414e-06
0.0391811
1.82657e-07
0.00311156
0.000603888
1.51358e-07
0.000308679
3.53578e-06
2.0237e-05
9.00363e-05
0.000598117
3.91521e-08
8.11821e-07
0.0172461
0.000587965
0.040889
1.47438e-05
4.41986e-05
4.49429e-05
0.000459502
1.21373e-07
4.16706e-06
0.000383885
0.226181
3.40329e-05
0.0378107
0.000212275
1.63538e-08
0.000247571
0.000234329
1.6362e-08
9.74327e-07
6.30697e-06
8.34972e-06
0.000663274
7.5879e-05
8.21764e-05
1
9.01654e-05
9.7815e-05
2.32792e-08
6.30697e-06
1.3661e-08
2.55111e-06
-4.03994e-08
0.0246456
0.000257078
0.000154882
4.20733e-08
0.997137
0.994105
3.7015e-06
3.33392e-06
0.00139307
8.15855e-06
0.00577875
1.27197e-07
1.36857e-06
2.03114e-08
0.000213916
0.000130572
9.99936e-05
6.40791e-07
6.4113e-07
3.32392e-08
3.69422e-06
0.000788749
0.00907602
0.000258901
0.00105014
7.06061e-08
0.000108699
0.000555067
1.37981e-08
0.00532835
5.01607e-06
0.0106892
0.00192334
3.66686e-08
0.00907183
9.57866e-05
6.93952e-06
0.000155306
8.35291e-05
0.402501
3.72143e-06
0.117689
0.00133102
0.00172772
2.28839e-06
3.06423e-08
0.918391
6.53014e-06
0.001978
6.35766e-06
1.72921e-07
2.88147e-08
0.00247358
0.907151
0.0376109
0.00532968
9.34772e-05
1.6336e-08
0.000126367
1.62504e-08
0.00272506
2.95986e-06
7.49529e-06
6.15064e-10
6.54285e-06
1.01405e-07
6.52348e-07
0.000947763
1.34052e-08
0.0379655
0.00530155
0.00186215
1.46688e-05
0.00113888
5.4115e-05
0.0287115
0.012854
6.42733e-07
3.91521e-08
0.000130737
0.0399901
3.95677e-08
0.652181
0.652181
7.06216e-08
0.0253828
7.85212e-06
0.000420118
0.00259737
0.000160459
1.92619e-06
0.0375694
0.000120725
0.000516211
0.000522275
0.00301714
1.13618e-07
0.00337706
0.00208913
0.000106644
6.47649e-06
2.81578e-07
1.52794e-07
0.00475975
0.00531767
0.000169368
0.000521016
0.000234668
0.978524
0.00375932
6.80104e-06
0.652165
0.993816
0.0106092
0.00216404
0.00221734
6.33742e-06
0.00196025
2.74594e-10
0.970416
3.24016e-08
8.43104e-05
2.01255e-07
9.62955e-06
7.43592e-06
0.000621906
0.0132761
3.81761e-08
0.12613
1.62683e-08
1.08957e-06
0.746267
0.00176511
6.35766e-06
0.510343
0.492361
3.08638e-08
8.35315e-05
0.00216394
0.000573554
0.00531519
0.00418131
0.27304
9.99747e-08
3.79942e-06
9.97898e-08
0.127921
6.92572e-06
3.9126e-08
2.40864e-07
0.0191342
0.000136325
0.000715173
1.62404e-08
0.000873332
0.997163
9.10963e-05
2.37256e-05
5.34269e-05
0.000808581
0.000785503
2.38109e-05
1.82171e-07
4.70689e-11
3.42081e-06
1
4.67877e-05
0.000723326
0.012394
2.81578e-07
2.48032e-07
1.17131e-07
0.000901365
1.32747e-08
0.000670783
4.87235e-05
1
8.35315e-05
4.41449e-06
0.000619434
6.65683e-05
0.0387837
5.537e-05
0.000236986
0.478577
3.41274e-06
0.00128612
0.000521313
0.997075
0.996929
3.25704e-07
6.35766e-06
0.000440607
0.186231
2.20501e-07
0.0209527
0.0123447
0.228986
0.00197666
0.000521279
6.54285e-06
3.20567e-07
0.000552771
3.47926e-06
8.69333e-06
3.45787e-06
0.000682286
1.32705e-08
0.000909445
0.000297105
1.9389e-05
7.83917e-08
0.986371
0.986225
1.71002e-05
0.000417491
1.22826e-07
0.000809303
0.00544428
1.62504e-08
0.000744842
1.9389e-05
0.000693421
2.1816e-07
1.40097e-07
0.000519695
0.874532
1
4.55946e-08
8.58208e-06
0.000640031
0.989528
0.999999
6.8621e-06
0.104806
5.86235e-05
0.00045424
0.000483792
0.000588831
0.000243115
0.00050427
0.688087
0.168085
8.37177e-05
2.18376e-05
8.52977e-05
0.000286214
2.09561e-05
0.256565
0.428626
1.12445e-07
2.54376e-05
0.887564
1.90336e-05
0.00225215
2.95637e-05
3.79073e-06
8.9773e-08
2.12091e-05
1.36188e-05
0.000437381
2.21896e-07
1
2.35551e-08
0.015431
3.54873e-06
3.68204e-06
1.61866e-08
4.78964e-05
2.20121e-08
1.60297e-05
2.18796e-05
1
6.37261e-06
8.32963e-06
8.35315e-05
2.1135e-07
1.58628e-06
2.09561e-05
0.000148603
0.000859933
7.63401e-05
1
1.24332e-05
0.000516211
1.05361e-05
0.347703
1.57296e-05
8.84355e-08
0.652181
1.32883e-05
3.75096e-06
1.38636e-05
6.13657e-05
1.62683e-08
2.74599e-10
2.99982e-05
0.000388578
0.0178763
1.32705e-08
2.33825e-06
2.27039e-05
1.94874e-07
1.61539e-08
0.0329764
0.000522313
0.0210575
3.15997e-07
0.00209199
0.00208622
1
2.0892e-05
1.59896e-05
0.996835
2.34433e-07
6.65782e-06
0.0890009
1.32705e-08
7.54426e-06
0.000108077
4.12671e-05
0.535545
0.00226593
0.000986389
0.000149401
0.00239898
0.896304
0.731743
0.986776
1
0.000100296
0.986697
0.000287713
2.18616e-05
6.95981e-05
3.53066e-05
4.45482e-06
1.02821e-07
0.329391
1.62124e-08
3.71598e-09
1.49222e-09
6.70386e-07
0.000150018
1
0.00108623
6.4346e-05
0.665288
4.27332e-05
0.327212
0.452043
0.262333
1.32729e-08
0.767182
1
1
0.192714
6.7263e-05
1
3.46024e-05
2.20785e-05
1.84874e-07
0.242854
0.000125117
0.257804
0.000494796
0.694545
0.230311
8.47797e-06
0.844496
0.00371602
5.64172e-05
1
0.00200234
0.0631062
1.61374e-08
0.543405
1.32705e-08
4.3167e-06
1.66775e-05
2.37151e-05
1.60185e-05
1.34341e-08
0.00578455
2.10568e-07
0.401547
1.41542e-05
0.942295
3.25739e-06
9.60188e-05
1.80228e-08
0.0661809
4.49844e-05
0.997153
1
0.130439
4.75676e-05
0.000188783
3.71559e-07
8.02539e-06
5.53381e-05
0.656885
3.48959e-05
1.33304e-08
0.00227661
0.000152769
8.68895e-06
0.756971
0.00501689
7.56471e-05
0.00139428
2.68771e-05
8.52796e-05
2.91999e-07
0.509969
1.66422e-08
0.000348137
0.667499
1.44972e-06
7.94361e-06
0.00279137
1.96669e-05
2.53788e-05
1.14267e-05
0.149564
1.53885e-05
9.99624e-07
0.000348137
0.842534
1.83005e-08
8.0879e-06
1.53864e-05
3.45263e-08
2.13638e-07
1.61384e-08
8.0243e-05
4.01781e-06
8.67707e-07
1.91119e-08
0.00032348
1
2.14836e-05
1
7.18511e-07
0.828794
1.11574e-05
1
0.00457981
0.00501693
0.00248539
9.21464e-06
1
4.13446e-08
2.03271e-05
1
0.750726
0.766691
1
3.7474e-07
0.000102035
2.6191e-05
1
2.49122e-05
2.58457e-05
0.878659
9.28217e-07
0.988831
1.99792e-08
1.61148e-05
0.000483689
8.9906e-08
8.68443e-06
0.988837
4.44213e-05
0.150224
3.7474e-07
7.18974e-07
3.01313e-05
5.71574e-07
1
0.401905
1.22771e-05
0.938083
0.327501
3.61582e-08
0.261948
1.7223e-07
1.01871e-05
0.243418
2.91712e-06
0.00501783
0.258418
3.02685e-07
2.73893e-05
0.876589
0.25764
0.199841
0.000176335
0.00522406
5.70988e-08
8.39913e-06
1.07122e-05
0.000427376
1.64231e-05
0.161295
0.687035
0.687057
0.131717
0.000280392
4.16097e-07
2.42156e-07
0.00393487
0.000692225
1
0.00446465
5.71574e-07
3.70591e-07
0.00419237
0.828087
0.561453
1
0.151688
0.0038239
2.46405e-07
0.750729
2.87126e-05
0.00119631
3.30287e-07
2.58417e-05
5.71574e-07
0.511565
0.667925
4.81774e-07
5.46575e-08
0.842117
2.14836e-05
0.0942587
5.97352e-05
8.11178e-06
1
0.00501693
0.00501693
0.00502734
0.534307
3.77977e-05
2.11821e-05
1.69934e-06
3.22259e-07
6.22807e-05
2.75734e-05
0.000502472
2.42692e-06
0.000663579
0.878612
5.44217e-05
2.58457e-05
2.77992e-05
0.794367
2.58417e-05
0.153739
1.58422e-06
0.927654
0.211724
1
2.57011e-05
1.66596e-06
0.000273843
4.68739e-07
0.00501783
7.45366e-08
1
0.940603
0.00281049
4.12769e-06
1.99204e-06
2.14836e-05
2.77832e-05
2.58741e-05
2.81078e-06
0.00364923
0.000495144
0.00282486
0.00282659
6.16866e-05
0.878659
3.59949e-07
0.00315411
0.00202015
2.59597e-05
8.65372e-06
1.08602e-05
1.84952e-07
1.01868e-05
1
3.719e-05
0.147754
0.876793
0.00146064
0.00395919
0.750729
4.72378e-05
5.48964e-05
3.85924e-07
0.00464073
0.000514391
0.00502726
0.00490338
1.57901e-05
2.52982e-05
0.00447019
0.00364028
0.000499103
0.00421344
2.6515e-05
2.07363e-05
1
0.00202015
1.06558e-05
0.00162442
0.00289919
8.65487e-06
2.55965e-05
0.731706
0.731818
4.01749e-06
1
3.98501e-07
7.71722e-05
2.56259e-05
2.60781e-05
0.000209673
1.44365e-07
0.00382181
2.55081e-05
1.33188e-05
0.000824913
2.6008e-05
0.00117358
3.03848e-05
1
1
0.000376117
2.42272e-05
2.57513e-05
0.988837
4.31463e-05
0.00556808
0.00500106
6.09436e-06
1.10794e-05
0.00655327
9.25134e-05
0.0369458
0.0941721
0.00045091
0.00180126
0.00130289
0.000118764
0.00319133
0.00369077
8.68443e-06
0.0042715
0.00476995
0.00729997
0.00385318
0.988837
0.001143
3.41764e-05
0.000132606
1
1
2.01021e-05
0.000433884
2.38532e-05
0.00345213
0.00364895
1.02088e-05
2.48473e-05
1.89405e-07
2.98111e-05
9.2649e-06
0.000104686
2.65913e-05
0.0076584
0.00429631
0.0001545
0.002835
8.68443e-06
0.00659661
6.49129e-05
0.00565959
0.00136344
0.00155509
4.58636e-05
0.00290944
8.0961e-06
0.00488945
0.00106239
1.06645e-05
0.00729921
0.00819943
0.00207323
0.0102138
0.0075471
0.012193
1.17461e-05
0.982797
1.09368e-05
0.00770731
0.0091829
0.000240921
0.00370999
0.00489209
0.0032938
0.00328204
0.00317459
0.00402299
0.00548422
0.00483681
0.00821067
0.00243763
1.11689e-05
4.5057e-05
0.00012324
0.00538445
0.00918578
0.00921339
0.00779403
0.000234402
0.00316362
0.000154658
1.14332e-05
6.47381e-05
0.000161347
0.00549865
0.00550274
0.00249686
0.00284211
0.00597702
0.00596465
0.00594254
0.00575677
0.00545458
1
1
7.22413e-13
1
0.00548428
1
0.00627823
0.00627823
0.00405411
0.00507929
0.00857481
0.0204493
0.00189123
0.00627823
0.0423313
0.0166055
0.00155107
0.00174822
0.00346363
0.00595716
0.00313965
0.00315442
0.00315531
0.00594254
0.00921339
0.00921339
0.00918959
0.00667947
0.00111735
0.00111735
0.00318245
0.00594126
7.30339e-06
0.00035354
3.04872e-05
2.38189e-05
0.988837
0.980347
1
0.537774
0.999969
0.690404
0.948004
0.0018441
0.010631
0.947293
0.692408
1
1.41177e-05
0.991937
0.820947
0.690414
0.999969
1.89173e-05
1
0.871903
0.00106602
1
0.994406
0.000445071
1
0.652181
0.652181
1
1
1
1
1
1
0.132301
0.999969
1
0.970421
0.970413
0.970402
0.999994
8.27294e-05
4.91562e-05
0.820497
0.999995
0.999996
1
1
1
0.298693
0.000109833
0.959029
1
0.999997
0.856578
1
1
1
1
1
1
1
0.999995
0.723605
0.00224279
0.97042
0.000453444
1
0.970421
0.999998
0.970421
1
0.911951
0.00617573
0.921814
0.999999
0.994097
0.970413
1
0.959029
0.999998
0.820575
0.00103396
1
0.00618988
0.652181
0.907296
0.0010193
0.951787
0.999995
0.850609
0.994072
0.00619467
5.71028e-06
1
0.999999
1
0.00631741
0.0010335
1
0.00102825
0.00567047
1
0.00578455
0.0010281
0.308076
0.00288783
0.340438
0.419292
0.908906
1
0.0057834
1
1
0.000538899
)
;

boundaryField
{
    patch0
    {
        type            zeroGradient;
    }
}


// ************************************************************************* //
