/*--------------------------------*- C++ -*----------------------------------*\
  =========                 |
  \\      /  F ield         | OpenFOAM: The Open Source CFD Toolbox
   \\    /   O peration     | Website:  https://openfoam.org
    \\  /    A nd           | Version:  8
     \\/     M anipulation  |
\*---------------------------------------------------------------------------*/
FoamFile
{
    version     2.0;
    format      ascii;
    class       volScalarField;
    location    "0.75";
    object      epsilon;
}
// * * * * * * * * * * * * * * * * * * * * * * * * * * * * * * * * * * * * * //

dimensions      [0 2 -3 0 0 0 0];

internalField   nonuniform List<scalar> 
1924
(
0.023339
0.0287202
0.0301899
0.0299377
0.0298167
0.0316083
0.0320584
0.033128
0.0350135
0.028457
0.035061
0.0384515
0.0249795
0.0377668
0.0449285
0.0454276
0.0324994
0.0427613
0.0208306
0.0418673
0.0163756
0.0545888
0.0336998
0.0486485
0.0540683
0.0503112
0.0523897
0.0265121
0.0308265
0.0225399
0.0363395
0.0536285
0.0199692
0.0316162
0.0275308
0.0343283
0.0540464
0.0300938
0.0227358
0.0363928
0.0528573
0.0185215
0.0516216
0.0295953
0.0237624
0.0323496
0.0237968
0.0263848
0.00723979
0.00960673
0.0151699
0.0243961
0.0544224
0.0122291
0.0345131
0.0277423
0.0209195
0.0242409
0.0248583
0.0541527
0.0278179
0.0454289
0.023243
0.0208406
0.0133935
0.0266537
0.0512453
0.0383303
0.031851
0.0161662
0.0255839
0.0468315
0.0198996
0.0294516
0.0370058
0.0363918
0.0300692
0.0445294
0.0266967
0.0212461
0.0749983
0.0519554
0.0236509
0.0181624
0.0189572
0.0381748
0.0255981
0.0443794
0.00747118
0.0225833
0.0509668
0.0511123
0.0335838
0.0377553
0.0275901
0.0132611
0.0298639
0.0720823
0.0541493
0.0313281
0.0318477
0.025279
0.0542882
0.05213
0.0397833
0.0661102
0.034102
0.0422062
0.0537346
0.0359335
0.032991
0.0331799
0.029077
0.0237408
0.0283408
0.0134197
0.0310519
0.0459357
0.0430587
0.0316806
0.0144671
0.0181678
0.0123841
0.0144077
0.0497967
0.0423408
0.0394304
0.0621707
0.034561
0.0370686
0.0386481
0.0330187
0.216148
0.0241942
0.0270815
0.0385071
0.0308652
0.0320649
0.0479229
0.0283621
0.0268277
0.0492259
0.164618
0.0963493
0.032984
0.0191643
0.0445741
0.0306878
0.0535406
0.0439147
0.0229079
0.0355097
0.0393994
0.0350713
0.0324598
0.0443536
0.0185563
0.0299613
0.0387725
0.156495
0.0233796
0.0363567
0.0341763
0.0188315
0.0211054
0.0401285
0.0429384
0.0236425
0.0355403
0.0366747
0.0279397
0.0341976
0.0715421
0.052248
0.0273209
0.0493047
0.0228245
0.0744824
0.0336349
0.0361754
0.0502454
0.0499733
0.0347214
0.0445336
0.00629708
0.0271728
0.0418716
0.0505358
0.0407149
0.0260854
0.0465224
0.0339095
0.0470487
0.0354431
0.0435936
0.0374227
0.0510359
0.0504652
0.050049
0.05094
0.0495997
0.0286112
0.0391321
0.0354034
0.0301314
0.0515639
0.0373391
0.0414654
0.0347599
0.22494
0.020132
0.0354764
0.0507189
0.0450467
0.0518633
0.056259
0.0532139
0.0481814
0.0366885
0.0679376
0.0466212
0.0238703
0.0408223
0.0499179
0.0354869
0.0522355
0.0451448
0.0737614
0.0446869
0.0517968
0.148717
0.0530821
0.0512281
0.0902269
0.0515561
0.207283
0.0606617
0.0384277
0.0398062
0.0396718
0.0502139
0.0525666
0.062079
0.0432742
0.108843
0.0337603
0.0364744
0.0293887
0.040554
0.0768809
0.0245952
0.0253425
0.0460329
0.0373235
0.047808
0.0519034
0.0497068
0.0539882
0.0484786
0.0377658
0.0466526
0.0414091
0.0520496
0.0496277
0.0533754
0.0436408
0.0173366
0.0748978
0.0358995
0.0729125
0.0520055
0.0227204
0.0287731
0.054343
0.0532233
0.0797971
0.0373891
0.0524374
0.0364366
0.0520913
0.0366928
0.0582028
0.0520839
0.0460551
0.0138351
0.0279545
0.0539041
0.0315607
0.0392512
0.053379
0.0409975
0.0247587
0.0519876
0.0630857
0.00954196
0.0212449
0.0513831
0.0429607
0.0769624
0.061965
0.0568532
0.0381421
0.0728115
0.0531196
0.0378111
0.0543411
0.0184725
0.0744508
0.0545176
0.024371
0.0364023
0.0434026
0.0473058
0.0534013
0.0501801
0.0222942
0.0484512
0.0389781
0.0424958
0.0471631
0.0372912
0.0527099
0.0376036
0.0225653
0.0538002
0.0779552
0.0528911
0.0546348
0.0294802
0.0527397
0.0528983
0.0515814
0.0521015
0.0403017
0.0699872
0.0526488
0.0537579
0.0423395
0.0476119
0.0392233
0.0798054
0.0232108
0.053695
0.0447094
0.0519723
0.0473652
0.144834
0.0501134
0.044629
0.0541179
0.0516584
0.12558
0.0833655
0.0736672
0.0350596
0.0804735
0.00631599
0.0400765
0.0548424
0.014589
0.052429
0.062545
0.075047
0.053348
0.0528228
0.0389087
0.0531387
0.0528517
0.0486334
0.0437882
0.0813599
0.0487918
0.0546856
0.0545126
0.050126
0.0488123
0.0618288
0.0508829
0.0534382
0.0501143
0.0478534
0.0828193
0.0537129
0.0480932
0.0533609
0.0822266
0.0588874
0.0529998
0.0496525
0.0403798
0.103711
0.0513633
0.0531931
0.0519464
0.0440755
0.305245
0.0497637
0.0535689
0.0625084
0.0465304
0.0219954
0.081689
0.0444992
0.0381802
0.0487862
0.0537803
0.0827929
0.0517451
0.0549147
0.0506684
0.0529731
0.0491142
0.0406423
0.0402084
0.0488025
0.0527532
0.0816693
0.072857
0.0424988
0.0321319
0.073901
0.0534335
0.0835122
0.0375439
0.0528577
0.0812817
0.057672
0.0215842
0.0528432
0.0514339
0.0537694
0.082558
0.0522373
0.0468744
0.045276
0.0505386
0.081967
0.013942
0.0419539
0.0532973
0.0539201
0.0495021
0.0495086
0.0171003
0.0504079
0.233163
0.0528865
0.0809954
0.0538038
0.0532501
0.0511077
0.0513812
0.0491889
0.0610061
0.0495022
0.0534178
0.0840426
0.0614955
0.0469269
0.0482905
0.0824226
0.0535804
0.0240831
0.0453202
0.0462669
0.0532308
0.052151
0.0494882
0.0414939
0.0254016
0.0509338
0.0490649
0.0459278
0.0840426
0.0534647
0.0837656
0.0183148
0.0413101
0.0505145
0.0469216
0.0533052
0.0454777
0.0537274
0.05225
0.0531202
0.0521806
0.0503534
0.0547515
0.0520587
0.0574807
0.016763
0.0515019
0.0477597
0.0319763
0.0801905
0.0842178
0.0489572
0.0538786
0.0498816
0.0222923
0.0808741
0.0583723
0.0542195
0.0530466
0.036984
0.0519676
0.0723543
0.0496712
0.051461
0.0829748
0.0855871
0.0844371
0.0539003
0.050311
0.0534721
0.053537
0.0535766
0.0538613
0.0429017
0.0475639
0.0486395
0.0702157
0.0840956
0.0827558
0.050075
0.0538012
0.0690231
0.0276672
0.0505264
0.0494139
0.0480197
0.0423033
0.049846
0.0374944
0.0459588
0.0526647
0.0465732
0.0539027
0.0289372
0.0515161
0.0534753
0.0219571
0.0209656
0.0873485
0.0837389
0.0515365
0.0238938
0.0198452
0.0511308
0.0676179
0.0510111
0.0537555
0.0494587
0.048916
0.0501434
0.0387124
0.0310524
0.0155841
0.0215713
0.0180467
0.05192
0.0494024
0.0399161
0.053869
0.0545935
0.0439498
0.0842797
0.0368518
0.0329866
0.0522919
0.0838819
0.0523898
0.0499209
0.0539616
0.0862776
0.0536053
0.0344581
0.0398071
0.0811069
0.0418499
0.0536007
0.0493487
0.0425898
0.0539487
0.0141489
0.0243469
0.0795429
0.044563
0.0844941
0.0228399
0.0504347
0.0495087
0.0532033
0.0150717
0.0174393
0.0811807
0.0535259
0.0619075
0.0526546
0.0487715
0.0148612
0.0775837
0.0499159
0.0185677
0.0507345
0.0429356
0.0540343
0.0853436
0.0467305
0.0457824
0.0506687
0.0582438
0.0361188
0.0643602
0.0539347
0.0512253
0.0508772
0.0473563
0.0152315
0.0205741
0.0816585
0.0848576
0.0360009
0.0515085
0.0468126
0.0570936
0.0315539
0.0501553
0.0541221
0.0390319
0.047969
0.0513944
0.0695216
0.046556
0.0501442
0.0152628
0.0509802
0.0190455
0.0520997
0.0822796
0.0534217
0.0537706
0.0531033
0.0503528
0.0511645
0.0697674
0.0522678
0.0558026
0.0524431
0.0546603
0.051498
0.0537643
0.0290773
0.0505689
0.0341973
0.0537833
0.0515432
0.0868326
0.050371
0.0402264
0.0424174
0.0251801
0.077757
0.0827819
0.0536067
0.0175677
0.0503778
0.0488338
0.0507598
0.0521419
0.0544431
0.0853423
0.017907
0.0660356
0.0626539
0.0837609
0.0439037
0.0497891
0.0186443
0.0373016
0.0795826
0.0790837
0.0517471
0.0527885
0.050641
0.0476565
0.0532348
0.0209094
0.0794338
0.0293126
0.0223827
0.0501095
0.042238
0.0514865
0.0520454
0.0770038
0.0385458
0.0890908
0.054248
0.0526301
0.0843493
0.0481651
0.0520566
0.0391459
0.0162402
0.0522068
0.0529853
0.0511708
0.0803836
0.0513006
0.0517777
0.0222587
0.0530311
0.0221217
0.0505389
0.0542595
0.0533374
0.0513602
0.0708509
0.0103276
0.0900632
0.0504802
0.0857451
0.0352401
0.0493466
0.0264094
0.116051
0.0163283
0.046487
0.0806596
0.0530811
0.0414453
0.021098
0.0539665
0.0527339
0.0505546
0.0530847
0.0524966
0.051795
0.0501251
0.0180833
0.0529819
0.085208
0.0447855
0.0403712
0.0617188
0.0531667
0.0372135
0.0515839
0.0816599
0.051145
0.0498771
0.0438525
0.0184133
0.0197215
0.0511755
0.0194396
0.0175399
0.0221126
0.0512124
0.043121
0.0527646
0.056791
0.0822648
0.0523066
0.0401833
0.0515329
0.0550602
0.0305301
0.0521299
0.0492801
0.0520626
0.0231187
0.0521425
0.041499
0.0779242
0.0527183
0.0513154
0.0334402
0.0519786
0.047244
0.0875159
0.0477385
0.0425449
0.0467676
0.0684319
0.0521064
0.0520622
0.0766277
0.0214821
0.0414571
0.0534774
0.0772287
0.0519258
0.0549969
0.0834914
0.0785228
0.00921812
0.052154
0.0529092
0.0220646
0.0475226
0.0508541
0.0155357
0.0863168
0.0622045
0.0173233
0.050265
0.0521762
0.0544858
0.0848789
0.0787652
0.0229804
0.0512472
0.0523785
0.0393279
0.0519972
0.0243129
0.0515115
0.0464294
0.0505998
0.0509512
0.068137
0.0287375
0.0524392
0.0797077
0.0559001
0.0525957
0.0518311
0.0408374
0.0498714
0.084948
0.0525093
0.0520703
0.0541277
0.0519559
0.0891296
0.0524742
0.0801346
0.0500812
0.0485506
0.0529399
0.0517747
0.0513505
0.00687327
0.0535402
0.0517558
0.0558798
0.0514725
0.0535578
0.0448657
0.051708
0.0356353
0.0870718
0.0500435
0.0506861
0.0530483
0.0537181
0.0202054
0.0921905
0.0526025
0.0634304
0.0505445
0.0295737
0.0482829
0.0507246
0.0240642
0.0513493
0.038466
0.0429308
0.0812541
0.0530362
0.0467994
0.0485289
0.0553214
0.0222104
0.0858438
0.0461065
0.0148378
0.0511818
0.0154373
0.0530319
0.0520279
0.053337
0.0492521
0.0534859
0.0502597
0.0468759
0.051569
0.0523353
0.0566278
0.0830747
0.0338786
0.0584925
0.0757399
0.0765103
0.0769819
0.0507176
0.049305
0.0529005
0.0426203
0.0778463
0.0536516
0.0192504
0.0518551
0.0551335
0.0715923
0.0304844
0.0515684
0.0697342
0.0516797
0.0158696
0.0778363
0.0776525
0.0216083
0.0505032
0.0335456
0.0516287
0.0547985
0.0904071
0.0898331
0.0513027
0.0572461
0.0237585
0.0781876
0.0436958
0.0842006
0.051519
0.0446404
0.0508229
0.0561675
0.0515844
0.0524651
0.0543744
0.0491904
0.0397046
0.0527034
0.0540417
0.0506619
0.0502952
0.0889178
0.0416358
0.0791936
0.0109197
0.0565398
0.0495779
0.0572776
0.048869
0.0406774
0.0506999
0.0532686
0.054019
0.134685
0.0536699
0.0521232
0.0566668
0.0475545
0.0604423
0.0427257
0.0524359
0.0237814
0.0810165
0.053879
0.0429483
0.0260403
0.0489823
0.0622811
0.0574125
0.0515724
0.0293381
0.087766
0.0546064
0.09214
0.0516712
0.0542164
0.0144823
0.0481213
0.0508689
0.0513979
0.0438459
0.0513122
0.0505509
0.0492062
0.0556413
0.051831
0.0503585
0.0578341
0.0164038
0.014874
0.054417
0.0539965
0.0487838
0.0822264
0.0567058
0.0542289
0.0897511
0.0545642
0.0521883
0.0525411
0.0449617
0.0525285
0.0357094
0.0540795
0.0530207
0.0544839
0.0410994
0.0523598
0.0548286
0.0748395
0.0182012
0.0575412
0.0387494
0.0520845
0.0483659
0.0756898
0.076302
0.0480388
0.0495772
0.0547884
0.0566579
0.0715133
0.0589178
0.0727845
0.0355932
0.0884309
0.0865525
0.0477775
0.0553444
0.0490678
0.0251393
0.0216741
0.0177655
0.0504733
0.0772445
0.0513919
0.0229036
0.0257621
0.0562202
0.0534449
0.0227437
0.0577441
0.0471685
0.0516557
0.0444297
0.0503501
0.0529043
0.0517025
0.0791335
0.0508211
0.0512343
0.047635
0.05709
0.0659919
0.0438103
0.0582369
0.0746574
0.0403307
0.0518973
0.0640318
0.0490714
0.0549515
0.0497524
0.0474271
0.0549015
0.0142668
0.0451364
0.0872461
0.0552159
0.0545443
0.0801227
0.030577
0.0520585
0.0331131
0.0578408
0.0550607
0.0492947
0.0478021
0.0707608
0.053448
0.0552079
0.0563711
0.118257
0.0470079
0.0555929
0.00949572
0.0449862
0.0551951
0.0851194
0.0476852
0.0527347
0.0478476
0.0562162
0.0527244
0.229847
0.0614836
0.0584014
0.0468331
0.053568
0.0682814
0.0478832
0.0398253
0.0547815
0.0568981
0.0533695
0.338372
0.0513645
0.0130615
0.0472196
0.0504137
0.0514632
0.051723
0.0420767
0.0504612
0.088731
0.0971742
0.0402655
0.0460364
0.0585429
0.0717803
0.0548791
0.0527639
0.0497941
0.0455411
0.0536311
0.0727555
0.0742824
0.0460075
0.0468628
0.0549307
0.366694
0.0859548
0.0532279
0.0494203
0.0527477
0.0551866
0.0548485
0.0540436
0.0751534
0.0772174
0.0280886
0.0557017
0.0539595
0.0976984
0.0258747
0.0439154
0.0575937
0.377435
0.0571797
0.0563625
0.0431781
0.014762
0.0470029
0.0782272
0.0528326
0.0520399
0.0566295
0.068096
0.0449986
0.0483563
0.0244151
0.0466518
0.0484264
0.0998724
0.368258
0.0583261
0.0330661
0.0338474
0.0463291
0.0834547
0.0570086
0.0667206
0.0548635
0.0493351
0.0364245
0.0429862
0.0516022
0.0462009
0.0127994
0.0259414
0.0506124
0.0496221
0.0444452
0.0537474
0.0532655
0.0471675
0.0517678
0.0720145
0.0583999
0.0507344
0.0521477
0.358705
0.0522619
0.0513719
0.0109703
0.0368292
0.0535004
0.0194627
0.0527317
0.0527371
0.042109
0.0486525
0.0545819
0.0463232
0.0512765
0.0474591
0.0534723
0.055039
0.0220498
0.0843916
0.0523331
0.0544858
0.0604241
0.0413317
0.0542145
0.0464486
0.0218394
0.0544708
0.0578272
0.0719512
0.0271887
0.0371255
0.0494559
0.0566728
0.0557262
0.025028
0.0537138
0.0426511
0.0421993
0.0131999
0.35087
0.0728097
0.058312
0.0486653
0.069204
0.0529526
0.0519938
0.0541136
0.05015
0.0478439
0.0504388
0.0621216
0.0512174
0.046801
0.029527
0.0275163
0.054126
0.0569042
0.0461518
0.0510428
0.066823
0.0466173
0.05173
0.0514975
0.0524504
0.050012
0.0374707
0.0753277
0.0170064
0.0416469
0.046074
0.0504463
0.0533603
0.101721
0.0185555
0.058512
0.038701
0.0460704
0.054595
0.0496002
0.0681512
0.0518486
0.0762708
0.0360244
0.0398653
0.0818487
0.0536642
0.0544249
0.0523718
0.0470379
0.0373841
0.0107111
0.0496947
0.0538495
0.0685119
0.0507689
0.344122
0.0509078
0.0551433
0.0465237
0.0548072
0.0530758
0.0560129
0.0504351
0.0197308
0.047208
0.0392634
0.0546047
0.0550769
0.0480021
0.0580232
0.161567
0.050137
0.0570522
0.0186772
0.0571005
0.0534631
0.0827514
0.0508075
0.32836
0.0467181
0.0555038
0.06099
0.569963
0.00800322
0.0581675
0.0703535
0.0287336
0.0363702
0.0535436
0.0467901
0.0449935
0.0548238
0.055321
0.0539116
0.0573049
0.0472411
0.0966396
0.0542847
0.0694893
0.0398141
0.0493342
0.0556667
0.0453681
0.0468012
0.0487801
0.0416107
0.0735947
0.0399551
0.0551312
0.761282
0.764926
0.0241478
0.0464814
0.0623254
0.112029
0.0470854
0.0553457
0.0458846
0.0507601
0.0589379
0.0555419
0.0643365
0.0483555
0.751948
0.0659594
0.0564694
0.338626
0.027706
0.043533
0.029952
0.0208106
0.0656692
0.0281826
0.0532605
0.0557389
0.052318
0.0566375
0.0557755
0.046958
0.0718975
0.049256
0.0731643
0.0784512
0.0549128
0.056408
0.0178152
0.731409
0.0517364
0.0361399
0.0540292
0.127955
0.0331704
0.128499
0.0489723
0.0635504
0.0205989
0.0135786
0.129364
0.0597259
0.0408138
0.0580675
0.0558633
0.0322046
0.133216
0.0670345
0.139418
0.0744286
0.0211919
0.142392
0.0584976
0.0116641
0.0670284
0.062857
0.0565163
0.713671
0.14865
0.050237
0.0356506
0.0502683
0.0508402
0.0622275
0.0571155
0.0621914
0.0488132
0.0523926
0.0485985
0.121819
0.0620747
0.0114257
0.0568904
0.0722175
0.0486729
0.0366538
0.0479295
0.123751
0.0171058
0.163695
0.063172
0.0661907
0.0480805
0.059157
0.0583635
0.0331836
0.0672659
0.0497005
0.699172
0.0729592
0.0574237
0.0300164
0.284253
0.0801068
0.067801
0.0625911
0.0573548
0.0492665
0.115399
0.0510804
0.0534436
0.106185
0.0559687
0.0582838
0.337721
0.0630774
0.0684187
0.0564283
0.180496
0.0627719
0.0523321
0.0540552
0.0932311
0.0505578
0.0593514
0.0627546
0.0495363
0.0667693
0.0515977
0.0810406
0.0527592
0.0568184
0.0499925
0.0629967
0.0176353
0.0565082
0.0145366
0.0560449
0.0300959
0.0575777
0.0553651
0.284349
0.2796
0.685623
0.0554957
0.0401452
0.0524119
0.0659257
0.0144673
0.06148
0.120791
0.0095771
0.050524
0.0675998
0.0652274
0.0166848
0.0721774
0.0715359
0.0877078
0.0541918
0.0280751
0.0521302
0.0534852
0.067095
0.0519951
0.056596
0.029714
0.0787516
0.197097
0.0502534
0.0541444
0.0780883
0.0545994
0.0129586
0.227418
0.0632781
0.0251098
0.23902
0.0532131
0.242133
0.0517653
0.0584169
0.247649
0.0559467
0.275029
0.257922
0.0534442
0.0782473
0.0821626
0.269883
0.278961
0.0550587
0.0516203
0.0534948
0.0583085
0.0589142
0.053791
0.0635503
0.0239389
0.0338675
0.0394498
0.300448
0.0557973
0.0634693
0.0537405
0.29101
0.0546326
0.0344102
0.286721
0.0568895
0.0553193
0.288825
0.0774044
0.0337788
0.0114454
0.332221
0.293419
0.0542832
0.115133
0.0786734
0.054924
0.0565972
0.0723029
0.0571491
0.215335
0.199543
0.0650823
0.0539916
0.178034
0.0572786
0.2097
0.0546381
0.0595391
0.0499448
0.576267
0.568015
0.269486
0.0346892
0.0787361
0.0576814
0.0569644
0.0550549
0.0609633
0.0792147
0.0569989
0.0588491
0.0569623
0.165312
0.0610497
0.0789493
0.0567842
0.0725179
0.0675022
0.365375
0.0578134
0.0252813
0.0435335
0.023356
0.0718184
0.0586202
0.057464
0.0618687
0.557211
0.0603716
0.0406854
0.0621521
0.326658
0.0580356
0.0592923
0.0596298
0.0589339
0.0667696
0.062632
0.296128
0.0576483
0.678469
0.666352
0.0795885
0.155601
0.0607931
0.312937
0.056781
0.0644356
0.0590307
0.059359
0.0596511
0.0641701
0.0107228
0.0600533
0.397986
0.14514
0.0590875
0.588765
0.113772
0.0614626
0.0625626
0.0616359
0.574141
0.061043
0.547004
0.262315
0.0585549
0.063527
0.579566
0.310589
0.0593535
0.583849
0.0620426
0.0627801
0.0323442
0.0600341
0.0643297
0.0589
0.316267
0.0595206
0.0629665
0.129575
0.121269
0.0604455
0.0100023
0.0624528
0.0649178
0.073292
0.0676647
0.0628463
0.0605671
0.594023
0.072961
0.0614115
0.0613442
0.067023
0.0618081
0.0799451
0.0272598
0.0305231
0.062488
0.0638181
0.0797128
0.0271604
0.0480147
0.238769
0.534336
0.0645843
0.0653475
0.235348
0.0640014
0.21679
0.422871
0.0627484
0.0620254
0.0628359
0.0603988
0.632462
0.626229
0.0595703
0.308945
0.242324
0.23224
0.0623955
0.0284062
0.0627079
0.0692401
0.0616107
0.0195334
0.0234291
0.0607515
0.0625077
0.0753656
0.299357
0.600029
0.0631086
0.0695261
0.0605683
0.0751218
0.0605104
0.0804282
0.0689051
0.229653
0.621499
0.0631969
0.321047
0.059935
0.474856
0.0807264
0.482534
0.254591
0.519205
0.0737157
0.640724
0.0681778
0.30804
0.0641797
0.0653175
0.46808
0.228005
0.0639524
0.226122
0.230702
0.458261
0.0670202
0.114698
0.0700164
0.462287
0.0626144
0.0730345
0.0817415
0.618349
0.616957
0.30352
0.309462
0.246713
0.308012
0.491247
0.457593
0.0814919
0.0752782
0.0783969
0.061397
0.616406
0.451382
0.226943
0.0627866
0.0795372
0.0822638
0.0626219
0.0666639
0.0779323
0.0640437
0.613446
0.310387
0.0640792
0.651543
0.333612
0.658447
0.3243
0.0833854
0.081748
0.0158912
0.00896179
0.065551
0.00867989
0.298033
0.0247054
0.480351
0.242594
0.502885
0.235875
0.468096
0.448604
0.249342
0.496026
0.437956
0.22161
0.327708
0.667074
0.607351
0.671507
0.334422
0.648375
0.317573
0.624077
0.435896
0.450288
0.235066
0.481337
0.499796
0.246638
0.630266
0.0831931
0.0331108
0.0787246
0.068774
0.0736936
0.0625849
0.110989
0.0238767
0.0169196
0.0215791
0.09205
0.0243139
0.0497097
0.0121583
0.0251287
0.0591624
0.0224109
0.0374478
0.0238037
0.0656428
0.0808668
0.0636354
0.0489285
0.00633656
0.0247952
0.0536375
0.0739093
0.0121215
0.0493169
0.025417
0.076715
0.0749163
0.0494063
0.0301201
0.0722824
0.0286513
0.0378772
0.0335807
0.0219838
0.0582705
0.0221504
0.0264813
0.0121004
0.0144889
0.0660397
0.0493004
0.0467415
0.025902
0.0566996
0.0502943
0.0235001
0.0248294
0.0759194
0.0161558
0.0460071
0.00989708
0.00614674
0.020212
0.0218091
0.0292405
0.0181286
0.0306617
0.0219433
0.0197719
0.0195849
0.0185448
0.0200454
0.0206398
0.0503903
0.00646572
0.0512229
0.0324615
0.0175039
0.0300499
0.00613791
0.0113226
0.0176225
0.0503271
0.00653523
0.0144188
0.0122331
0.0152418
0.0110797
0.00777432
0.00752883
0.0153248
0.0813261
0.00945183
0.0512744
0.0764647
0.00703391
0.0692266
0.0063106
0.0300207
0.0237743
0.0157245
0.0510429
0.0572717
0.00580243
0.00723774
0.0235299
0.0519043
0.0706345
0.00795083
0.0798744
0.0505376
0.0186009
0.0499726
0.0715662
0.0139933
0.0473515
0.0146237
0.0106736
0.00959951
0.0286085
0.0478763
0.0205697
0.0360143
0.0588022
)
;

boundaryField
{
    patch0
    {
        type            epsilonWallFunction;
        value           nonuniform List<scalar> 
4010
(
0.023339
0.023339
0.0287202
0.0287202
0.0301899
0.0301899
0.0299377
0.0299377
0.0298167
0.0298167
0.0316083
0.0316083
0.0320584
0.0320584
0.033128
0.033128
0.0350135
0.0350135
0.028457
0.028457
0.035061
0.035061
0.0384515
0.0384515
0.0249795
0.0249795
0.0377668
0.0377668
0.0449285
0.0449285
0.0454276
0.0454276
0.0324994
0.0324994
0.0427613
0.0427613
0.0208306
0.0208306
0.0418673
0.0418673
0.0163756
0.0163756
0.0545888
0.0545888
0.0336998
0.0336998
0.0486485
0.0486485
0.0540683
0.0540683
0.0503112
0.0503112
0.0523897
0.0523897
0.0265121
0.0265121
0.0308265
0.0308265
0.0225399
0.0225399
0.0363395
0.0363395
0.0536285
0.0536285
0.0199692
0.0199692
0.0316162
0.0316162
0.0275308
0.0275308
0.0343283
0.0343283
0.0540464
0.0540464
0.0300938
0.0300938
0.0227358
0.0227358
0.0363928
0.0363928
0.0528573
0.0528573
0.0185215
0.0185215
0.0516216
0.0516216
0.0295953
0.0295953
0.0237624
0.0237624
0.0323496
0.0323496
0.0237968
0.0237968
0.0263848
0.0263848
0.00723979
0.00723979
0.00960673
0.00960673
0.0151699
0.0151699
0.0243961
0.0243961
0.0544224
0.0544224
0.0122291
0.0122291
0.0345131
0.0345131
0.0277423
0.0277423
0.0209195
0.0209195
0.0242409
0.0242409
0.0248583
0.0248583
0.0541527
0.0541527
0.0278179
0.0278179
0.0454289
0.0454289
0.023243
0.023243
0.0208406
0.0208406
0.0133935
0.0133935
0.0266537
0.0266537
0.0512453
0.0512453
0.0383303
0.0383303
0.031851
0.031851
0.0161662
0.0161662
0.0255839
0.0255839
0.0468315
0.0468315
0.0198996
0.0198996
0.0294516
0.0294516
0.0370058
0.0370058
0.0363918
0.0363918
0.0300692
0.0300692
0.0445294
0.0445294
0.0266967
0.0266967
0.0212461
0.0212461
0.0749983
0.0749983
0.0519554
0.0519554
0.0236509
0.0236509
0.0181624
0.0181624
0.0189572
0.0189572
0.0381748
0.0381748
0.0255981
0.0255981
0.0443794
0.0443794
0.00747118
0.00747118
0.0225833
0.0225833
0.0509668
0.0509668
0.0511123
0.0511123
0.0335838
0.0335838
0.0377553
0.0377553
0.0275901
0.0275901
0.0132611
0.0132611
0.0298639
0.0298639
0.0720823
0.0720823
0.0541493
0.0541493
0.0313281
0.0313281
0.0318477
0.0318477
0.025279
0.025279
0.0542882
0.0542882
0.05213
0.05213
0.0397833
0.0397833
0.0661102
0.0661102
0.034102
0.034102
0.0422062
0.0422062
0.0537346
0.0537346
0.0359335
0.0359335
0.032991
0.032991
0.0331799
0.0331799
0.029077
0.029077
0.0237408
0.0237408
0.0283408
0.0283408
0.0134197
0.0134197
0.0310519
0.0310519
0.0459357
0.0459357
0.0430587
0.0430587
0.0316806
0.0316806
0.0144671
0.0144671
0.0181678
0.0181678
0.0123841
0.0123841
0.0144077
0.0144077
0.0497967
0.0497967
0.0423408
0.0423408
0.0394304
0.0394304
0.0621707
0.0621707
0.034561
0.034561
0.0370686
0.0370686
0.0386481
0.0386481
0.0330187
0.0330187
0.216148
0.216148
0.0241942
0.0241942
0.0270815
0.0270815
0.0385071
0.0385071
0.0308652
0.0308652
0.0320649
0.0320649
0.0479229
0.0479229
0.0283621
0.0283621
0.0268277
0.0268277
0.0492259
0.0492259
0.164618
0.164618
0.164618
0.0963493
0.0963493
0.0963493
0.032984
0.032984
0.0191643
0.0191643
0.0445741
0.0445741
0.0306878
0.0306878
0.0535406
0.0535406
0.0439147
0.0439147
0.0229079
0.0229079
0.0355097
0.0355097
0.0355097
0.0393994
0.0393994
0.0350713
0.0350713
0.0324598
0.0324598
0.0443536
0.0443536
0.0185563
0.0185563
0.0299613
0.0299613
0.0387725
0.0387725
0.156495
0.156495
0.0233796
0.0233796
0.0363567
0.0363567
0.0341763
0.0341763
0.0188315
0.0188315
0.0211054
0.0211054
0.0401285
0.0401285
0.0429384
0.0429384
0.0236425
0.0236425
0.0355403
0.0355403
0.0366747
0.0366747
0.0279397
0.0279397
0.0341976
0.0341976
0.0715421
0.0715421
0.052248
0.052248
0.0273209
0.0273209
0.0493047
0.0493047
0.0228245
0.0228245
0.0744824
0.0744824
0.0336349
0.0336349
0.0361754
0.0361754
0.0502454
0.0502454
0.0499733
0.0499733
0.0347214
0.0347214
0.0445336
0.0445336
0.00629708
0.00629708
0.0271728
0.0271728
0.0418716
0.0418716
0.0505358
0.0505358
0.0407149
0.0407149
0.0260854
0.0260854
0.0465224
0.0465224
0.0339095
0.0339095
0.0470487
0.0470487
0.0354431
0.0354431
0.0435936
0.0435936
0.0374227
0.0374227
0.0374227
0.0510359
0.0510359
0.0504652
0.0504652
0.050049
0.050049
0.05094
0.05094
0.0495997
0.0495997
0.0286112
0.0286112
0.0391321
0.0391321
0.0354034
0.0354034
0.0301314
0.0301314
0.0515639
0.0515639
0.0373391
0.0373391
0.0414654
0.0414654
0.0347599
0.0347599
0.22494
0.22494
0.22494
0.020132
0.020132
0.0354764
0.0354764
0.0507189
0.0507189
0.0450467
0.0450467
0.0518633
0.0518633
0.056259
0.056259
0.0532139
0.0532139
0.0481814
0.0481814
0.0366885
0.0366885
0.0679376
0.0679376
0.0466212
0.0466212
0.0238703
0.0238703
0.0408223
0.0408223
0.0499179
0.0499179
0.0354869
0.0354869
0.0522355
0.0522355
0.0451448
0.0451448
0.0737614
0.0737614
0.0446869
0.0446869
0.0517968
0.0517968
0.148717
0.148717
0.0530821
0.0530821
0.0512281
0.0512281
0.0902269
0.0902269
0.0515561
0.0515561
0.207283
0.207283
0.207283
0.0606617
0.0606617
0.0384277
0.0384277
0.0398062
0.0398062
0.0396718
0.0396718
0.0396718
0.0502139
0.0502139
0.0525666
0.0525666
0.062079
0.062079
0.0432742
0.0432742
0.108843
0.108843
0.0337603
0.0337603
0.0364744
0.0364744
0.0293887
0.0293887
0.040554
0.040554
0.0768809
0.0768809
0.0245952
0.0245952
0.0253425
0.0253425
0.0460329
0.0460329
0.0373235
0.0373235
0.047808
0.047808
0.0519034
0.0519034
0.0497068
0.0497068
0.0539882
0.0539882
0.0484786
0.0484786
0.0377658
0.0377658
0.0466526
0.0466526
0.0414091
0.0414091
0.0520496
0.0520496
0.0496277
0.0496277
0.0533754
0.0533754
0.0436408
0.0436408
0.0173366
0.0173366
0.0748978
0.0748978
0.0358995
0.0358995
0.0729125
0.0729125
0.0520055
0.0520055
0.0227204
0.0227204
0.0287731
0.0287731
0.054343
0.054343
0.0532233
0.0532233
0.0797971
0.0797971
0.0373891
0.0373891
0.0524374
0.0524374
0.0364366
0.0364366
0.0520913
0.0520913
0.0366928
0.0366928
0.0582028
0.0582028
0.0582028
0.0520839
0.0520839
0.0460551
0.0460551
0.0138351
0.0138351
0.0279545
0.0279545
0.0539041
0.0539041
0.0315607
0.0315607
0.0392512
0.0392512
0.053379
0.053379
0.0409975
0.0409975
0.0247587
0.0247587
0.0519876
0.0519876
0.0630857
0.0630857
0.00954196
0.00954196
0.0212449
0.0212449
0.0513831
0.0513831
0.0429607
0.0429607
0.0769624
0.0769624
0.061965
0.061965
0.0568532
0.0568532
0.0568532
0.0381421
0.0381421
0.0728115
0.0728115
0.0531196
0.0531196
0.0378111
0.0378111
0.0543411
0.0543411
0.0184725
0.0184725
0.0744508
0.0744508
0.0545176
0.0545176
0.024371
0.024371
0.0364023
0.0364023
0.0434026
0.0434026
0.0473058
0.0473058
0.0534013
0.0534013
0.0501801
0.0501801
0.0222942
0.0222942
0.0484512
0.0484512
0.0389781
0.0389781
0.0424958
0.0424958
0.0471631
0.0471631
0.0372912
0.0372912
0.0527099
0.0527099
0.0376036
0.0376036
0.0225653
0.0225653
0.0538002
0.0538002
0.0779552
0.0779552
0.0528911
0.0528911
0.0546348
0.0546348
0.0294802
0.0294802
0.0527397
0.0527397
0.0528983
0.0528983
0.0515814
0.0515814
0.0521015
0.0521015
0.0403017
0.0403017
0.0699872
0.0699872
0.0526488
0.0526488
0.0537579
0.0537579
0.0423395
0.0423395
0.0476119
0.0476119
0.0392233
0.0392233
0.0798054
0.0798054
0.0232108
0.0232108
0.053695
0.053695
0.0447094
0.0447094
0.0519723
0.0519723
0.0473652
0.0473652
0.144834
0.144834
0.0501134
0.0501134
0.044629
0.044629
0.0541179
0.0541179
0.0516584
0.0516584
0.12558
0.12558
0.0833655
0.0833655
0.0736672
0.0736672
0.0350596
0.0350596
0.0804735
0.0804735
0.00631599
0.00631599
0.0400765
0.0400765
0.0548424
0.0548424
0.014589
0.014589
0.052429
0.052429
0.062545
0.062545
0.075047
0.075047
0.053348
0.053348
0.0528228
0.0528228
0.0389087
0.0389087
0.0531387
0.0531387
0.0528517
0.0528517
0.0486334
0.0486334
0.0437882
0.0437882
0.0813599
0.0813599
0.0487918
0.0487918
0.0546856
0.0546856
0.0545126
0.0545126
0.050126
0.050126
0.0488123
0.0488123
0.0618288
0.0618288
0.0508829
0.0508829
0.0534382
0.0534382
0.0501143
0.0501143
0.0478534
0.0478534
0.0828193
0.0828193
0.0537129
0.0537129
0.0480932
0.0480932
0.0533609
0.0533609
0.0822266
0.0822266
0.0588874
0.0588874
0.0529998
0.0529998
0.0496525
0.0496525
0.0403798
0.0403798
0.103711
0.103711
0.0513633
0.0513633
0.0531931
0.0531931
0.0519464
0.0519464
0.0440755
0.0440755
0.305245
0.305245
0.305245
0.0497637
0.0497637
0.0535689
0.0535689
0.0625084
0.0625084
0.0465304
0.0465304
0.0219954
0.0219954
0.081689
0.081689
0.0444992
0.0444992
0.0381802
0.0381802
0.0487862
0.0487862
0.0487862
0.0537803
0.0537803
0.0827929
0.0827929
0.0517451
0.0517451
0.0549147
0.0549147
0.0506684
0.0506684
0.0529731
0.0529731
0.0491142
0.0491142
0.0406423
0.0406423
0.0402084
0.0402084
0.0488025
0.0488025
0.0527532
0.0527532
0.0816693
0.0816693
0.072857
0.072857
0.0424988
0.0424988
0.0321319
0.0321319
0.073901
0.073901
0.0534335
0.0534335
0.0835122
0.0835122
0.0375439
0.0375439
0.0528577
0.0528577
0.0812817
0.0812817
0.057672
0.057672
0.0215842
0.0215842
0.0528432
0.0528432
0.0514339
0.0514339
0.0537694
0.0537694
0.082558
0.082558
0.0522373
0.0522373
0.0468744
0.0468744
0.045276
0.045276
0.0505386
0.0505386
0.081967
0.081967
0.013942
0.013942
0.0419539
0.0419539
0.0532973
0.0532973
0.0539201
0.0539201
0.0495021
0.0495021
0.0495086
0.0495086
0.0171003
0.0171003
0.0504079
0.0504079
0.233163
0.233163
0.233163
0.0528865
0.0528865
0.0809954
0.0809954
0.0538038
0.0538038
0.0532501
0.0532501
0.0511077
0.0511077
0.0513812
0.0513812
0.0491889
0.0491889
0.0610061
0.0610061
0.0495022
0.0495022
0.0534178
0.0534178
0.0840426
0.0840426
0.0614955
0.0614955
0.0469269
0.0469269
0.0482905
0.0482905
0.0824226
0.0824226
0.0535804
0.0535804
0.0240831
0.0240831
0.0453202
0.0453202
0.0462669
0.0462669
0.0532308
0.0532308
0.052151
0.052151
0.0494882
0.0494882
0.0414939
0.0414939
0.0254016
0.0254016
0.0509338
0.0509338
0.0490649
0.0490649
0.0459278
0.0459278
0.0840426
0.0840426
0.0534647
0.0534647
0.0837656
0.0837656
0.0183148
0.0183148
0.0413101
0.0413101
0.0505145
0.0505145
0.0469216
0.0469216
0.0533052
0.0533052
0.0454777
0.0454777
0.0537274
0.0537274
0.05225
0.05225
0.0531202
0.0531202
0.0521806
0.0521806
0.0503534
0.0503534
0.0547515
0.0547515
0.0520587
0.0520587
0.0574807
0.0574807
0.016763
0.016763
0.0515019
0.0515019
0.0477597
0.0477597
0.0319763
0.0319763
0.0801905
0.0801905
0.0842178
0.0842178
0.0489572
0.0489572
0.0538786
0.0538786
0.0498816
0.0498816
0.0222923
0.0222923
0.0808741
0.0808741
0.0583723
0.0583723
0.0542195
0.0542195
0.0530466
0.0530466
0.036984
0.036984
0.0519676
0.0519676
0.0723543
0.0723543
0.0496712
0.0496712
0.051461
0.051461
0.0829748
0.0829748
0.0855871
0.0855871
0.0844371
0.0844371
0.0539003
0.0539003