/*--------------------------------*- C++ -*----------------------------------*\
  =========                 |
  \\      /  F ield         | OpenFOAM: The Open Source CFD Toolbox
   \\    /   O peration     | Website:  https://openfoam.org
    \\  /    A nd           | Version:  8
     \\/     M anipulation  |
\*---------------------------------------------------------------------------*/
FoamFile
{
    version     2.0;
    format      ascii;
    class       volScalarField;
    location    "0.75";
    object      k;
}
// * * * * * * * * * * * * * * * * * * * * * * * * * * * * * * * * * * * * * //

dimensions      [0 2 -2 0 0 0 0];

internalField   nonuniform List<scalar> 
1924
(
0.0203733
0.0233872
0.0241256
0.0240778
0.0239659
0.0249059
0.0252854
0.0257387
0.0269861
0.0231837
0.0268629
0.028783
0.0213614
0.0283631
0.0315473
0.0317811
0.0254472
0.0308643
0.0188948
0.0304129
0.0161126
0.0359305
0.026067
0.0335725
0.0357029
0.034025
0.0349725
0.0221242
0.0244622
0.0200375
0.0274187
0.0355035
0.0183584
0.024994
0.022679
0.0263811
0.0356891
0.024069
0.0203462
0.0274391
0.0351683
0.0174917
0.0346157
0.0239069
0.0205741
0.0252645
0.0205981
0.0221312
0.00933943
0.0112808
0.0153077
0.0210199
0.0358594
0.0132461
0.0263548
0.0228112
0.0189419
0.0208407
0.0211827
0.0357432
0.0229328
0.0317347
0.0203565
0.0188186
0.0140558
0.0222676
0.0344303
0.0284089
0.0249986
0.015983
0.0217036
0.0324162
0.018262
0.024385
0.0286992
0.0273932
0.0244148
0.0324092
0.0223584
0.0191696
0.0447322
0.0347804
0.0205402
0.0172587
0.0177403
0.0283197
0.021599
0.0312853
0.00953877
0.0199793
0.0342993
0.0343972
0.0258924
0.027922
0.02281
0.0139572
0.0242621
0.0436163
0.0357349
0.02482
0.0249508
0.0215214
0.0357949
0.0348301
0.0289071
0.0417089
0.0260952
0.0300815
0.035556
0.0270273
0.0260099
0.0256344
0.023522
0.0205762
0.0234589
0.0141191
0.0245509
0.0320242
0.0306607
0.0254351
0.0148106
0.00907531
0.0133693
0.0148233
0.0337826
0.0301463
0.0288789
0.0402806
0.026335
0.0138538
0.0292603
0.0255412
0.0214502
0.0208387
0.0225298
0.0282946
0.0244327
0.0250532
0.033229
0.0231341
0.0223346
0.0335004
0.0151899
0.0106266
0.0255421
0.0178616
0.0312226
0.02448
0.0354698
0.0310473
0.0201221
0.00893676
0.0288936
0.0265815
0.0253054
0.0310944
0.0092048
0.0239657
0.0292285
0.0173038
0.020378
0.0273277
0.0261342
0.00929478
0.0190806
0.0290811
0.030438
0.00899332
0.0277252
0.0273918
0.0229597
0.0261742
0.0438054
0.034885
0.0225922
0.0335027
0.0200919
0.0166587
0.026011
0.0271344
0.0338768
0.0339044
0.0273497
0.0311886
0.00850469
0.0225201
0.0300891
0.0340126
0.0303436
0.0221791
0.0321724
0.0260858
0.0333722
0.0267824
0.0307477
0.00925475
0.0342528
0.0340397
0.0338103
0.0342736
0.0121942
0.023326
0.0285993
0.0268113
0.0241383
0.0344987
0.0277177
0.0299052
0.0266076
0.0182865
0.00971795
0.0267858
0.0344574
0.0314314
0.0346337
0.0378092
0.0353171
0.032957
0.027425
0.0425518
0.0321755
0.0206674
0.0294189
0.0340881
0.0269801
0.0348139
0.0323888
0.0445034
0.0312676
0.0346629
0.0208189
0.0352541
0.0343598
0.0173953
0.0345106
0.0173612
0.0388451
0.0282635
0.028925
0.00962181
0.0340268
0.0349704
0.0394264
0.0307696
0.0169659
0.026088
0.0273984
0.0238955
0.0304726
0.0457009
0.0209919
0.010216
0.0319014
0.027709
0.0338675
0.0349017
0.0337429
0.0356254
0.0330602
0.027991
0.0321873
0.0296993
0.0347985
0.0348778
0.0353868
0.0320126
0.0167393
0.0450954
0.0270523
0.0157939
0.0347639
0.0200126
0.0234119
0.0357843
0.03532
0.0464906
0.0280233
0.0349226
0.0272632
0.0347681
0.0109424
0.00990875
0.0347963
0.0319157
0.014378
0.0234469
0.0363408
0.0116303
0.028688
0.0353449
0.0295011
0.0217617
0.0347261
0.0397932
0.0112333
0.0191635
0.034654
0.0306191
0.0459776
0.0393104
0.0118839
0.0281083
0.0437901
0.0352724
0.0281585
0.0357928
0.0174658
0.0444047
0.0358669
0.0209469
0.0274251
0.030804
0.0325045
0.0354189
0.034865
0.0198001
0.0330258
0.0286433
0.0302218
0.0324343
0.0290184
0.0350803
0.0278411
0.019916
0.0355798
0.0458942
0.0351134
0.0359249
0.0239094
0.0357298
0.0351386
0.0345833
0.0348596
0.0295377
0.0433408
0.0350299
0.0355678
0.0301497
0.0326583
0.0286354
0.0465687
0.0202731
0.0355339
0.031439
0.0348288
0.0326646
0.0195747
0.0339291
0.031383
0.0357107
0.0346206
0.0178403
0.0179476
0.0440541
0.0267469
0.046973
0.00852073
0.0291423
0.036019
0.0148817
0.0349321
0.0394454
0.0445928
0.0353753
0.0351368
0.0284871
0.0352936
0.0351443
0.0331468
0.0308416
0.0469958
0.0331859
0.0359603
0.0359458
0.0339355
0.0125609
0.0391506
0.0343092
0.0354077
0.0339453
0.0328942
0.0478277
0.0354934
0.0328796
0.0353552
0.0472947
0.0390233
0.0352244
0.0337149
0.029201
0.0190498
0.0345218
0.035258
0.0347443
0.0309836
0.0200529
0.0337643
0.0354673
0.039819
0.0323077
0.0195814
0.0476032
0.0313415
0.0281703
0.00710412
0.0355741
0.0475397
0.0346621
0.0360638
0.0341754
0.035184
0.0335112
0.029499
0.0291277
0.0332566
0.0351084
0.0471696
0.0436501
0.0304423
0.0254789
0.0440669
0.0354023
0.0477719
0.0279899
0.0351538
0.0469159
0.0381214
0.019823
0.0351558
0.0345186
0.0355653
0.0474954
0.0348804
0.0324597
0.0315542
0.0341118
0.0471624
0.0144763
0.0299674
0.035345
0.0356085
0.0336443
0.0335322
0.0165772
0.0340762
0.0169253
0.0351495
0.0476013
0.0355454
0.0353308
0.0344352
0.0345158
0.0334081
0.0391472
0.0336448
0.0353662
0.0479163
0.0390242
0.0324525
0.0330952
0.0474935
0.0354664
0.0208473
0.031694
0.032167
0.0353236
0.034842
0.0335834
0.0297641
0.021567
0.0342994
0.0334622
0.0332027
0.0478931
0.035421
0.0479662
0.0173505
0.029798
0.0341188
0.0324897
0.0353475
0.0316571
0.0355459
0.0348855
0.0352687
0.0348604
0.034027
0.0360408
0.0347965
0.0379325
0.0163709
0.0345442
0.0328484
0.0253496
0.0464679
0.0480046
0.0334078
0.0356099
0.0338127
0.0197486
0.0467324
0.0376369
0.0357436
0.0352368
0.0277177
0.0347625
0.0434488
0.0337225
0.0345312
0.0474736
0.0487279
0.048081
0.0356199
0.0339277
0.0354288
0.0354578
0.035465
0.0355747
0.0304337
0.0327852
0.0332359
0.0424964
0.0480226
0.0473819
0.0338426
0.0355464
0.042999
0.0228362
0.0341161
0.0335694
0.0329338
0.0302876
0.0337991
0.027962
0.0320262
0.035076
0.0321797
0.0356209
0.0235613
0.034565
0.0354159
0.0195402
0.0189855
0.0494062
0.047746
0.0345564
0.0213463
0.0182265
0.0343957
0.0418234
0.0343183
0.0355545
0.0336667
0.0333684
0.0339307
0.0285708
0.0246606
0.0155721
0.0193469
0.0173029
0.0347461
0.0335794
0.0290343
0.0356026
0.0359146
0.0311399
0.0481039
0.0281359
0.026774
0.0348898
0.0478006
0.0349401
0.0338321
0.0356456
0.0492753
0.0354916
0.0264223
0.0291063
0.0467505
0.0300969
0.0354733
0.0335858
0.0303175
0.0356416
0.0145808
0.0209685
0.0462221
0.0313516
0.04805
0.0200463
0.0340757
0.0336344
0.0141073
0.0152074
0.0167826
0.0467918
0.03546
0.0399092
0.0350748
0.0332936
0.0150736
0.0453745
0.0338048
0.0174289
0.034189
0.0305787
0.0356628
0.048509
0.0324243
0.0319211
0.0341877
0.0375989
0.0272658
0.0407251
0.0356178
0.0344386
0.0342177
0.032677
0.015327
0.0186933
0.0469338
0.0482264
0.0276397
0.0345544
0.0323113
0.0383916
0.0249119
0.03396
0.0357048
0.0287084
0.0329682
0.0344896
0.0428898
0.0322786
0.0339141
0.0153448
0.0343013
0.017794
0.0348066
0.0471858
0.0354037
0.0355596
0.0352446
0.0340278
0.0344015
0.0423551
0.034891
0.0364471
0.0349632
0.0359508
0.0345373
0.0355575
0.0235072
0.0340923
0.0262816
0.0355702
0.0345497
0.0490074
0.0340424
0.0292869
0.030393
0.0214278
0.0464407
0.0473529
0.0354945
0.016803
0.0340467
0.0333618
0.0342092
0.0348077
0.0358387
0.04844
0.0171112
0.0412753
0.0394198
0.0477354
0.0309382
0.0338164
0.0175318
0.0278479
0.0461704
0.04601
0.0346782
0.0351379
0.0341616
0.0327168
0.0353323
0.018932
0.0460938
0.0237048
0.0197585
0.0339107
0.0308696
0.034531
0.0347806
0.0451734
0.0284636
0.0498847
0.0357467
0.0350439
0.0479671
0.0330165
0.0347867
0.0287905
0.0159806
0.0348565
0.0352142
0.0343862
0.0464567
0.034436
0.0346659
0.0197123
0.0352332
0.0196568
0.0341122
0.0357727
0.0353717
0.0344683
0.0427342
0.0118316
0.0504028
0.0341058
0.0486129
0.0268055
0.0335946
0.00815977
0.0141093
0.0160458
0.0322888
0.0465532
0.03526
0.0298727
0.0190317
0.0356279
0.0351139
0.034119
0.0352672
0.0349909
0.0346968
0.0339093
0.0171577
0.0352175
0.0483368
0.0115334
0.0298861
0.0146687
0.0352639
0.0277986
0.034571
0.0469285
0.03438
0.0338199
0.0309549
0.0173604
0.0181822
0.0343712
0.018536
0.0168295
0.0196512
0.0344412
0.0320423
0.035122
0.0367901
0.047151
0.0348919
0.0292638
0.0345527
0.0361028
0.0243519
0.0348222
0.0335612
0.0347906
0.0202471
0.0348424
0.0299322
0.0455234
0.0350649
0.0344548
0.0258757
0.0347668
0.0325962
0.0492412
0.0327857
0.0303001
0.0326897
0.0431772
0.0348192
0.0347981
0.045037
0.0192518
0.029878
0.0354214
0.0452616
0.0347456
0.0360735
0.047622
0.0457482
0.0109608
0.0348398
0.0351742
0.0196638
0.0327782
0.0342525
0.0156221
0.0487903
0.0391611
0.016657
0.0340109
0.0348579
0.0358477
0.0490494
0.0458203
0.0201582
0.0128168
0.0349343
0.0288379
0.034782
0.0209052
0.0345435
0.0322862
0.0341263
0.0342765
0.0415292
0.0233763
0.0349766
0.046187
0.0364684
0.0350491
0.034706
0.0295752
0.0338251
0.0482255
0.0349826
0.0347968
0.0356845
0.0347452
0.049784
0.0349947
0.0463382
0.00692305
0.0337243
0.0138535
0.0346697
0.0344751
0.00901445
0.0354446
0.0346617
0.0364583
0.0345532
0.0354592
0.031434
0.0346477
0.0269908
0.0490681
0.0338965
0.0341893
0.0352206
0.03551
0.0184744
0.0510064
0.0350512
0.0396447
0.0341243
0.0248192
0.0330743
0.0342082
0.0207573
0.034476
0.0284047
0.0305824
0.0467673
0.0352282
0.0323937
0.0331665
0.0362163
0.0203713
0.0485948
0.0320724
0.00616971
0.0344087
0.0154208
0.0352171
0.0347967
0.0368626
0.0335328
0.0354112
0.0339993
0.0329381
0.034586
0.0349309
0.0367881
0.0474856
0.00999397
0.037478
0.044613
0.044926
0.0451209
0.0342107
0.03354
0.0351503
0.0304322
0.0468348
0.0354853
0.0179076
0.0347025
0.0361327
0.042888
0.0243173
0.0345772
0.0421495
0.0346266
0.0159793
0.0454521
0.00923921
0.0193301
0.0341067
0.0259223
0.0346017
0.035988
0.0503041
0.0506077
0.0344198
0.0370569
0.0206153
0.0455794
0.0309438
0.0479334
0.0345343
0.0313618
0.0342451
0.0365887
0.0346013
0.034976
0.0358083
0.0335094
0.0290777
0.0350924
0.0356654
0.0341728
0.0340131
0.049792
0.00771494
0.0459726
0.0122836
0.0147761
0.0336838
0.0370729
0.0333615
0.029488
0.0341864
0.0353128
0.035657
0.0155397
0.0355003
0.0348337
0.00914797
0.0327419
0.00911658
0.0304762
0.0349733
0.0206275
0.046683
0.0355884
0.0306998
0.0218877
0.0334151
0.0390566
0.037136
0.0345784
0.0237077
0.0493536
0.0359056
0.0508665
0.0346226
0.0356886
0.0148118
0.0330148
0.0342642
0.0345075
0.0309571
0.0344687
0.0341207
0.0334904
0.0363602
0.0346961
0.0340377
0.0373144
0.0160908
0.01507
0.0358289
0.0356792
0.0333245
0.0471611
0.0368285
0.0357439
0.050074
0.0358895
0.0348627
0.0350166
0.0315397
0.0350089
0.0270319
0.0356768
0.0352316
0.035853
0.0297752
0.0348799
0.0364316
0.0442409
0.0172554
0.0371978
0.0285463
0.0348177
0.0331286
0.0445812
0.0448387
0.0329778
0.0336811
0.0359874
0.0368318
0.0428406
0.0376578
0.0433574
0.00734236
0.0496081
0.0488762
0.0328583
0.0362318
0.0334519
0.0214365
0.0193267
0.0169756
0.0340641
0.0452053
0.0345057
0.0201045
0.0217462
0.0366172
0.0358271
0.0200109
0.0372867
0.0325631
0.034596
0.0313284
0.0340344
0.0351784
0.0346377
0.0459431
0.0342414
0.0344278
0.0327934
0.0370027
0.040574
0.0309975
0.0374965
0.0446753
0.0294909
0.0347265
0.0397747
0.033453
0.0360599
0.0337595
0.0326805
0.0360369
0.0146436
0.0316214
0.0491493
0.036101
0.0359268
0.0463346
0.0243762
0.0347979
0.0257052
0.037329
0.036105
0.0335509
0.0328705
0.0171649
0.0354168
0.0361711
0.0367161
0.0259692
0.0325005
0.0363434
0.0111888
0.031541
0.0361644
0.0483011
0.0328138
0.0350969
0.0328887
0.0366198
0.0350937
0.0403024
0.0163475
0.037581
0.0324208
0.0354021
0.0422961
0.0329069
0.0290832
0.0359854
0.0369222
0.0353571
0.0506316
0.0344859
0.0138181
0.0325751
0.0340578
0.0345344
0.0346472
0.0301731
0.0340822
0.0112243
0.0119277
0.0294313
0.0320395
0.037633
0.0429704
0.0360282
0.0351284
0.0337768
0.031806
0.0354973
0.0433699
0.0440276
0.0319861
0.032435
0.0360508
0.0527988
0.0486388
0.0353156
0.0336094
0.0350776
0.036163
0.0360148
0.0357029
0.0443686
0.0451891
0.0230449
0.0363909
0.0356398
0.0128458
0.0218171
0.0310443
0.0372228
0.0530422
0.037081
0.036684
0.0126081
0.00575083
0.0324996
0.0455842
0.0351298
0.0347909
0.0366994
0.0414433
0.0315564
0.0331238
0.0209919
0.0323361
0.033154
0.0136016
0.0521164
0.0375585
0.00996229
0.0260923
0.0321876
0.0476315
0.03697
0.0408843
0.0360168
0.033536
0.0274019
0.0307022
0.0345972
0.0321294
0.0136426
0.0220253
0.0341518
0.0337022
0.0312928
0.0355429
0.0353136
0.0325746
0.0346676
0.0173829
0.0375726
0.0342006
0.0348414
0.0512935
0.0348858
0.0344887
0.0123173
0.0112432
0.0354337
0.0180485
0.0351063
0.0350912
0.0301829
0.0332598
0.0358533
0.0321862
0.0344463
0.0327118
0.0354078
0.0361528
0.0196151
0.0480098
0.0349187
0.0358483
0.0382964
0.029822
0.0357498
0.0322196
0.019485
0.0358617
0.0373241
0.0430778
0.00513183
0.00631828
0.0336211
0.0368645
0.036384
0.0213425
0.0354926
0.0304472
0.030227
0.013918
0.0505746
0.0434243
0.0375554
0.0332619
0.0419264
0.0351922
0.0347682
0.0357032
0.0339206
0.0328885
0.0340685
0.0390159
0.0344231
0.03241
0.0238263
0.0227343
0.0356988
0.0369001
0.0321117
0.0343394
0.00975292
0.0323244
0.0346436
0.0345489
0.0349586
0.0338965
0.0113652
0.0444525
0.016493
0.0134275
0.0320771
0.0340842
0.0353542
0.0137852
0.0174826
0.0376271
0.028522
0.0320466
0.0358871
0.033677
0.041496
0.0347022
0.0448151
0.0272046
0.0290943
0.0469934
0.0355251
0.0358351
0.034936
0.0325068
0.0278863
0.0120915
0.0337462
0.0355936
0.0168176
0.0342266
0.0499308
0.0342757
0.0361557
0.0322886
0.0360371
0.0352728
0.0365047
0.0341061
0.0182149
0.0325961
0.0287981
0.03592
0.0361258
0.0329565
0.037389
0.0198814
0.0339264
0.0370238
0.01756
0.0369226
0.035498
0.0473483
0.0342711
0.0323811
0.0323583
0.0363098
0.0396337
0.0459451
0.00998627
0.0374942
0.0424397
0.0237483
0.027368
0.0354731
0.0324073
0.0111483
0.0360168
0.0363403
0.035673
0.0370698
0.032616
0.0137148
0.0357899
0.0420889
0.0290667
0.0335752
0.0363213
0.0317239
0.0324215
0.0333117
0.0299402
0.0437815
0.0291426
0.0361189
0.0537753
0.0536683
0.0208398
0.032248
0.039323
0.0146863
0.032559
0.0363961
0.0120317
0.0342056
0.0377935
0.0363269
0.0399478
0.0112514
0.0528474
0.0408407
0.0367271
0.0493951
0.0054318
0.0073404
0.0240524
0.0188733
0.0407236
0.0230964
0.0353301
0.0364111
0.0349059
0.0368566
0.0364292
0.0324951
0.0108056
0.0335272
0.0112096
0.0117628
0.0360368
0.0367002
0.0170168
0.0519197
0.0346444
0.0272522
0.0356706
0.0257738
0.0257357
0.0258549
0.0334078
0.0159896
0.0187451
0.014194
0.0259564
0.0380405
0.0120159
0.0375091
0.036487
0.0102774
0.0264508
0.0412525
0.0272674
0.0441063
0.00710895
0.0276955
0.0375906
0.0128365
0.0412605
0.0395352
0.0112756
0.0511161
0.0284054
0.0339639
0.0270137
0.0339794
0.0342401
0.0392514
0.0370329
0.0392007
0.0333433
0.0349882
0.0332589
0.0249334
0.0391684
0.0126488
0.0369161
0.0432577
0.0332768
0.0275153
0.0329099
0.0157096
0.0165617
0.0302615
0.0394642
0.0407317
0.0330249
0.0379027
0.0375317
0.0257414
0.0412618
0.0337262
0.0504483
0.0435517
0.0371376
0.024081
0.0438874
0.046332
0.0415215
0.0393507
0.0371069
0.0335719
0.0240385
0.0343525
0.0353984
0.0227294
0.0364558
0.0374281
0.0492982
0.0396152
0.0416848
0.0367074
0.0323082
0.0394502
0.0348991
0.0356667
0.0208373
0.0341394
0.037971
0.0394608
0.0336742
0.0105234
0.0345773
0.0466885
0.0350915
0.0368331
0.0339007
0.0395286
0.0169008
0.0367363
0.0148584
0.0365104
0.0241218
0.0371667
0.00928538
0.0439003
0.0433782
0.0498046
0.0363045
0.0118864
0.0349524
0.0406252
0.0148114
0.0156312
0.0154602
0.0112621
0.0341603
0.0413494
0.0403343
0.0162871
0.043276
0.0430224
0.0200088
0.0356892
0.0230309
0.0348818
0.0354111
0.0411428
0.034789
0.0367812
0.0239186
0.0458516
0.0342797
0.0340232
0.0356983
0.0456535
0.0358908
0.0137614
0.0238046
0.0396239
0.00870397
0.0246182
0.035324
0.0248339
0.0347383
0.0375598
0.0251976
0.0364352
0.0428877
0.0258805
0.0354498
0.0457623
0.0191502
0.0266819
0.0272731
0.0360879
0.0346484
0.0355136
0.0375144
0.0377876
0.0355728
0.0397425
0.0207193
0.00610146
0.00674823
0.0285905
0.0364201
0.0395754
0.0356275
0.044587
0.0359245
0.0107389
0.0441468
0.0368805
0.0363503
0.0443642
0.0184124
0.026055
0.0126666
0.0305612
0.0448295
0.0357573
0.0149659
0.0459127
0.0361084
0.036894
0.0433576
0.0369943
0.0229445
0.0218005
0.0402573
0.0356937
0.0201988
0.0370653
0.0357807
0.0359945
0.038058
0.00864628
0.0442632
0.0438363
0.0422735
0.0265198
0.0458867
0.0372298
0.0370868
0.0362414
0.0385646
0.0461436
0.036924
0.0376958
0.0369929
0.0192308
0.0386246
0.0460439
0.0368444
0.0175534
0.0413361
0.0325695
0.0372582
0.0214865
0.00791796
0.00829347
0.0431612
0.0376282
0.0372636
0.0391299
0.043268
0.0385056
0.00756215
0.0157368
0.048178
0.0375107
0.0379074
0.0380656
0.037746
0.0410287
0.0394215
0.0451008
0.0372009
0.0494478
0.0488382
0.0461615
0.0184691
0.0385049
0.0468383
0.0369487
0.0400288
0.0378158
0.0379558
0.0381264
0.0399829
0.0121303
0.0382009
0.0345032
0.017637
0.0379652
0.0449268
0.0148379
0.0388027
0.0393931
0.0390255
0.0441791
0.0386606
0.0427122
0.041484
0.0376003
0.0396485
0.0444588
0.0466153
0.037914
0.0446786
0.0390177
0.0394676
0.00649088
0.0383982
0.040053
0.0378985
0.0471524
0.0380127
0.0394253
0.0163581
0.0156505
0.0383774
0.01158
0.0391737
0.0402403
0.0437647
0.0414162
0.0394956
0.0385441
0.04519
0.0436183
0.0387884
0.0387455
0.0411356
0.0390983
0.0464124
0.00919358
0.00624438
0.0393327
0.0397911
0.0463091
0.0225266
0.0329602
0.039033
0.0420098
0.0400447
0.0404522
0.0386662
0.0398367
0.0366147
0.0359761
0.0394436
0.0392168
0.0394796
0.0383807
0.0471531
0.0468552
0.038054
0.0464573
0.0394108
0.0383372
0.0393232
0.0232112
0.0394939
0.041966
0.0388878
0.00736242
0.00523536
0.0385271
0.0393574
0.0445712
0.0454204
0.0454884
0.0394567
0.0421667
0.0384687
0.0444391
0.0384324
0.046542
0.0418861
0.0380667
0.0466312
0.0395511
0.047612
0.0381942
0.0388865
0.0466768
0.0392928
0.0406719
0.0412044
0.0438293
0.0475503
0.0414794
0.0463631
0.040019
0.0404473
0.0385293
0.0379056
0.0399827
0.0376597
0.0381667
0.0379924
0.0411066
0.0149138
0.0422134
0.0382242
0.0394149
0.0435509
0.0470358
0.0464804
0.0463081
0.0458238
0.046393
0.0398616
0.0463484
0.039749
0.0379808
0.0469263
0.0442593
0.0457038
0.0388029
0.0463733
0.0376459
0.0378091
0.0394971
0.0460665
0.047181
0.0393133
0.0409772
0.0454921
0.0399257
0.0462022
0.0465717
0.0400312
0.0480855
0.0488846
0.0484701
0.0479821
0.0476526
0.0469796
0.00404192
0.00437944
0.0105141
0.00270066
0.0452552
0.00542444
0.0391711
0.0394258
0.0403417
0.0387246
0.0385323
0.0374555
0.0402011
0.0400088
0.0368557
0.0371584
0.0481444
0.048758
0.0458467
0.0490628
0.0488849
0.0478055
0.0471782
0.0467047
0.0367783
0.0376393
0.0388008
0.0394251
0.0403604
0.0400686
0.0469455
0.0475666
0.0264371
0.0457321
0.0417786
0.0435866
0.0158094
0.014592
0.0206833
0.0164471
0.0193311
0.0129571
0.0209266
0.0338116
0.0131634
0.0213906
0.0152745
0.00767649
0.0287626
0.02064
0.0096239
0.0118347
0.00943287
0.0334422
0.00853892
0.0212105
0.0355142
0.0104155
0.0131836
0.033557
0.0215637
0.00996141
0.00980134
0.00796055
0.00572343
0.0107357
0.00553612
0.00666734
0.00615365
0.0195751
0.0141117
0.0196739
0.00496819
0.00296475
0.00334124
0.0153458
0.033555
0.0324222
0.00512635
0.00683737
0.00631377
0.0204653
0.0212302
0.0140256
0.0159566
0.0331651
0.0115031
0.00836783
0.0072934
0.00471957
0.0102739
0.00647976
0.0108035
0.00735845
0.00686709
0.00682184
0.00373359
0.00393356
0.0187676
0.0340508
0.00866045
0.035464
0.00669389
0.0060011
0.00747256
0.00836378
0.0125973
0.00615545
0.0340211
0.0087214
0.0148052
0.0132602
0.00375585
0.0124148
0.00979281
0.00959118
0.00582753
0.0470236
0.0111659
0.0344464
0.0105879
0.00915818
0.0424178
0.00851986
0.00743709
0.00484883
0.0156913
0.0343481
0.0373917
0.00805091
0.00934156
0.00460379
0.0347403
0.0430158
0.00994542
0.0465063
0.0341534
0.00662087
0.0339056
0.0433331
0.0144923
0.0327235
0.0149264
0.0120996
0.0112708
0.00428649
0.0329719
0.00651419
0.00580204
0.0380507
)
;

boundaryField
{
    patch0
    {
        type            kqRWallFunction;
        value           nonuniform List<scalar> 
4010
(
0.0203733
0.0203733
0.0233872
0.0233872
0.0241256
0.0241256
0.0240778
0.0240778
0.0239659
0.0239659
0.0249059
0.0249059
0.0252854
0.0252854
0.0257387
0.0257387
0.0269861
0.0269861
0.0231837
0.0231837
0.0268629
0.0268629
0.028783
0.028783
0.0213614
0.0213614
0.0283631
0.0283631
0.0315473
0.0315473
0.0317811
0.0317811
0.0254472
0.0254472
0.0308643
0.0308643
0.0188948
0.0188948
0.0304129
0.0304129
0.0161126
0.0161126
0.0359305
0.0359305
0.026067
0.026067
0.0335725
0.0335725
0.0357029
0.0357029
0.034025
0.034025
0.0349725
0.0349725
0.0221242
0.0221242
0.0244622
0.0244622
0.0200375
0.0200375
0.0274187
0.0274187
0.0355035
0.0355035
0.0183584
0.0183584
0.024994
0.024994
0.022679
0.022679
0.0263811
0.0263811
0.0356891
0.0356891
0.024069
0.024069
0.0203462
0.0203462
0.0274391
0.0274391
0.0351683
0.0351683
0.0174917
0.0174917
0.0346157
0.0346157
0.0239069
0.0239069
0.0205741
0.0205741
0.0252645
0.0252645
0.0205981
0.0205981
0.0221312
0.0221312
0.00933943
0.00933943
0.0112808
0.0112808
0.0153077
0.0153077
0.0210199
0.0210199
0.0358594
0.0358594
0.0132461
0.0132461
0.0263548
0.0263548
0.0228112
0.0228112
0.0189419
0.0189419
0.0208407
0.0208407
0.0211827
0.0211827
0.0357432
0.0357432
0.0229328
0.0229328
0.0317347
0.0317347
0.0203565
0.0203565
0.0188186
0.0188186
0.0140558
0.0140558
0.0222676
0.0222676
0.0344303
0.0344303
0.0284089
0.0284089
0.0249986
0.0249986
0.015983
0.015983
0.0217036
0.0217036
0.0324162
0.0324162
0.018262
0.018262
0.024385
0.024385
0.0286992
0.0286992
0.0273932
0.0273932
0.0244148
0.0244148
0.0324092
0.0324092
0.0223584
0.0223584
0.0191696
0.0191696
0.0447322
0.0447322
0.0347804
0.0347804
0.0205402
0.0205402
0.0172587
0.0172587
0.0177403
0.0177403
0.0283197
0.0283197
0.021599
0.021599
0.0312853
0.0312853
0.00953877
0.00953877
0.0199793
0.0199793
0.0342993
0.0342993
0.0343972
0.0343972
0.0258924
0.0258924
0.027922
0.027922
0.02281
0.02281
0.0139572
0.0139572
0.0242621
0.0242621
0.0436163
0.0436163
0.0357349
0.0357349
0.02482
0.02482
0.0249508
0.0249508
0.0215214
0.0215214
0.0357949
0.0357949
0.0348301
0.0348301
0.0289071
0.0289071
0.0417089
0.0417089
0.0260952
0.0260952
0.0300815
0.0300815
0.035556
0.035556
0.0270273
0.0270273
0.0260099
0.0260099
0.0256344
0.0256344
0.023522
0.023522
0.0205762
0.0205762
0.0234589
0.0234589
0.0141191
0.0141191
0.0245509
0.0245509
0.0320242
0.0320242
0.0306607
0.0306607
0.0254351
0.0254351
0.0148106
0.0148106
0.00907531
0.00907531
0.0133693
0.0133693
0.0148233
0.0148233
0.0337826
0.0337826
0.0301463
0.0301463
0.0288789
0.0288789
0.0402806
0.0402806
0.026335
0.026335
0.0138538
0.0138538
0.0292603
0.0292603
0.0255412
0.0255412
0.0214502
0.0214502
0.0208387
0.0208387
0.0225298
0.0225298
0.0282946
0.0282946
0.0244327
0.0244327
0.0250532
0.0250532
0.033229
0.033229
0.0231341
0.0231341
0.0223346
0.0223346
0.0335004
0.0335004
0.0151899
0.0151899
0.0151899
0.0106266
0.0106266
0.0106266
0.0255421
0.0255421
0.0178616
0.0178616
0.0312226
0.0312226
0.02448
0.02448
0.0354698
0.0354698
0.0310473
0.0310473
0.0201221
0.0201221
0.00893676
0.00893676
0.00893676
0.0288936
0.0288936
0.0265815
0.0265815
0.0253054
0.0253054
0.0310944
0.0310944
0.0092048
0.0092048
0.0239657
0.0239657
0.0292285
0.0292285
0.0173038
0.0173038
0.020378
0.020378
0.0273277
0.0273277
0.0261342
0.0261342
0.00929478
0.00929478
0.0190806
0.0190806
0.0290811
0.0290811
0.030438
0.030438
0.00899332
0.00899332
0.0277252
0.0277252
0.0273918
0.0273918
0.0229597
0.0229597
0.0261742
0.0261742
0.0438054
0.0438054
0.034885
0.034885
0.0225922
0.0225922
0.0335027
0.0335027
0.0200919
0.0200919
0.0166587
0.0166587
0.026011
0.026011
0.0271344
0.0271344
0.0338768
0.0338768
0.0339044
0.0339044
0.0273497
0.0273497
0.0311886
0.0311886
0.00850469
0.00850469
0.0225201
0.0225201
0.0300891
0.0300891
0.0340126
0.0340126
0.0303436
0.0303436
0.0221791
0.0221791
0.0321724
0.0321724
0.0260858
0.0260858
0.0333722
0.0333722
0.0267824
0.0267824
0.0307477
0.0307477
0.00925475
0.00925475
0.00925475
0.0342528
0.0342528
0.0340397
0.0340397
0.0338103
0.0338103
0.0342736
0.0342736
0.0121942
0.0121942
0.023326
0.023326
0.0285993
0.0285993
0.0268113
0.0268113
0.0241383
0.0241383
0.0344987
0.0344987
0.0277177
0.0277177
0.0299052
0.0299052
0.0266076
0.0266076
0.0182865
0.0182865
0.0182865
0.00971795
0.00971795
0.0267858
0.0267858
0.0344574
0.0344574
0.0314314
0.0314314
0.0346337
0.0346337
0.0378092
0.0378092
0.0353171
0.0353171
0.032957
0.032957
0.027425
0.027425
0.0425518
0.0425518
0.0321755
0.0321755
0.0206674
0.0206674
0.0294189
0.0294189
0.0340881
0.0340881
0.0269801
0.0269801
0.0348139
0.0348139
0.0323888
0.0323888
0.0445034
0.0445034
0.0312676
0.0312676
0.0346629
0.0346629
0.0208189
0.0208189
0.0352541
0.0352541
0.0343598
0.0343598
0.0173953
0.0173953
0.0345106
0.0345106
0.0173612
0.0173612
0.0173612
0.0388451
0.0388451
0.0282635
0.0282635
0.028925
0.028925
0.00962181
0.00962181
0.00962181
0.0340268
0.0340268
0.0349704
0.0349704
0.0394264
0.0394264
0.0307696
0.0307696
0.0169659
0.0169659
0.026088
0.026088
0.0273984
0.0273984
0.0238955
0.0238955
0.0304726
0.0304726
0.0457009
0.0457009
0.0209919
0.0209919
0.010216
0.010216
0.0319014
0.0319014
0.027709
0.027709
0.0338675
0.0338675
0.0349017
0.0349017
0.0337429
0.0337429
0.0356254
0.0356254
0.0330602
0.0330602
0.027991
0.027991
0.0321873
0.0321873
0.0296993
0.0296993
0.0347985
0.0347985
0.0348778
0.0348778
0.0353868
0.0353868
0.0320126
0.0320126
0.0167393
0.0167393
0.0450954
0.0450954
0.0270523
0.0270523
0.0157939
0.0157939
0.0347639
0.0347639
0.0200126
0.0200126
0.0234119
0.0234119
0.0357843
0.0357843
0.03532
0.03532
0.0464906
0.0464906
0.0280233
0.0280233
0.0349226
0.0349226
0.0272632
0.0272632
0.0347681
0.0347681
0.0109424
0.0109424
0.00990875
0.00990875
0.00990875
0.0347963
0.0347963
0.0319157
0.0319157
0.014378
0.014378
0.0234469
0.0234469
0.0363408
0.0363408
0.0116303
0.0116303
0.028688
0.028688
0.0353449
0.0353449
0.0295011
0.0295011
0.0217617
0.0217617
0.0347261
0.0347261
0.0397932
0.0397932
0.0112333
0.0112333
0.0191635
0.0191635
0.034654
0.034654
0.0306191
0.0306191
0.0459776
0.0459776
0.0393104
0.0393104
0.0118839
0.0118839
0.0118839
0.0281083
0.0281083
0.0437901
0.0437901
0.0352724
0.0352724
0.0281585
0.0281585
0.0357928
0.0357928
0.0174658
0.0174658
0.0444047
0.0444047
0.0358669
0.0358669
0.0209469
0.0209469
0.0274251
0.0274251
0.030804
0.030804
0.0325045
0.0325045
0.0354189
0.0354189
0.034865
0.034865
0.0198001
0.0198001
0.0330258
0.0330258
0.0286433
0.0286433
0.0302218
0.0302218
0.0324343
0.0324343
0.0290184
0.0290184
0.0350803
0.0350803
0.0278411
0.0278411
0.019916
0.019916
0.0355798
0.0355798
0.0458942
0.0458942
0.0351134
0.0351134
0.0359249
0.0359249
0.0239094
0.0239094
0.0357298
0.0357298
0.0351386
0.0351386
0.0345833
0.0345833
0.0348596
0.0348596
0.0295377
0.0295377
0.0433408
0.0433408
0.0350299
0.0350299
0.0355678
0.0355678
0.0301497
0.0301497
0.0326583
0.0326583
0.0286354
0.0286354
0.0465687
0.0465687
0.0202731
0.0202731
0.0355339
0.0355339
0.031439
0.031439
0.0348288
0.0348288
0.0326646
0.0326646
0.0195747
0.0195747
0.0339291
0.0339291
0.031383
0.031383
0.0357107
0.0357107
0.0346206
0.0346206
0.0178403
0.0178403
0.0179476
0.0179476
0.0440541
0.0440541
0.0267469
0.0267469
0.046973
0.046973
0.00852073
0.00852073
0.0291423
0.0291423
0.036019
0.036019
0.0148817
0.0148817
0.0349321
0.0349321
0.0394454
0.0394454
0.0445928
0.0445928
0.0353753
0.0353753
0.0351368
0.0351368
0.0284871
0.0284871
0.0352936
0.0352936
0.0351443
0.0351443
0.0331468
0.0331468
0.0308416
0.0308416
0.0469958
0.0469958
0.0331859
0.0331859
0.0359603
0.0359603
0.0359458
0.0359458
0.0339355
0.0339355
0.0125609
0.0125609
0.0391506
0.0391506
0.0343092
0.0343092
0.0354077
0.0354077
0.0339453
0.0339453
0.0328942
0.0328942
0.0478277
0.0478277
0.0354934
0.0354934
0.0328796
0.0328796
0.0353552
0.0353552
0.0472947
0.0472947
0.0390233
0.0390233
0.0352244
0.0352244
0.0337149
0.0337149
0.029201
0.029201
0.0190498
0.0190498
0.0345218
0.0345218
0.035258
0.035258
0.0347443
0.0347443
0.0309836
0.0309836
0.0200529
0.0200529
0.0200529
0.0337643
0.0337643
0.0354673
0.0354673
0.039819
0.039819
0.0323077
0.0323077
0.0195814
0.0195814
0.0476032
0.0476032
0.0313415
0.0313415
0.0281703
0.0281703
0.00710412
0.00710412
0.00710412
0.0355741
0.0355741
0.0475397
0.0475397
0.0346621
0.0346621
0.0360638
0.0360638
0.0341754
0.0341754
0.035184
0.035184
0.0335112
0.0335112
0.029499
0.029499
0.0291277
0.0291277
0.0332566
0.0332566
0.0351084
0.0351084
0.0471696
0.0471696
0.0436501
0.0436501
0.0304423
0.0304423
0.0254789
0.0254789
0.0440669
0.0440669
0.0354023
0.0354023
0.0477719
0.0477719
0.0279899
0.0279899
0.0351538
0.0351538
0.0469159
0.0469159
0.0381214
0.0381214
0.019823
0.019823
0.0351558
0.0351558
0.0345186
0.0345186
0.0355653
0.0355653
0.0474954
0.0474954
0.0348804
0.0348804
0.0324597
0.0324597
0.0315542
0.0315542
0.0341118
0.0341118
0.0471624
0.0471624
0.0144763
0.0144763
0.0299674
0.0299674
0.035345
0.035345
0.0356085
0.0356085
0.0336443
0.0336443
0.0335322
0.0335322
0.0165772
0.0165772
0.0340762
0.0340762
0.0169253
0.0169253
0.0169253
0.0351495
0.0351495
0.0476013
0.0476013
0.0355454
0.0355454
0.0353308
0.0353308
0.0344352
0.0344352
0.0345158
0.0345158
0.0334081
0.0334081
0.0391472
0.0391472
0.0336448
0.0336448
0.0353662
0.0353662
0.0479163
0.0479163
0.0390242
0.0390242
0.0324525
0.0324525
0.0330952
0.0330952
0.0474935
0.0474935
0.0354664
0.0354664
0.0208473
0.0208473
0.031694
0.031694
0.032167
0.032167
0.0353236
0.0353236
0.034842
0.034842
0.0335834
0.0335834
0.0297641
0.0297641
0.021567
0.021567
0.0342994
0.0342994
0.0334622
0.0334622
0.0332027
0.0332027
0.0478931
0.0478931
0.035421
0.035421
0.0479662
0.0479662
0.0173505
0.0173505
0.029798
0.029798
0.0341188
0.0341188
0.0324897
0.0324897
0.0353475
0.0353475
0.0316571
0.0316571
0.0355459
0.0355459
0.0348855
0.0348855
0.0352687
0.0352687
0.0348604
0.0348604
0.034027
0.034027
0.0360408
0.0360408
0.0347965
0.0347965
0.0379325
0.0379325
0.0163709
0.0163709
0.0345442
0.0345442
0.0328484
0.0328484
0.0253496
0.0253496
0.0464679
0.0464679
0.0480046
0.0480046
0.0334078
0.0334078
0.0356099
0.0356099
0.0338127
0.0338127
0.0197486
0.0197486
0.0467324
0.0467324