/*--------------------------------*- C++ -*----------------------------------*\
  =========                 |
  \\      /  F ield         | OpenFOAM: The Open Source CFD Toolbox
   \\    /   O peration     | Website:  https://openfoam.org
    \\  /    A nd           | Version:  8
     \\/     M anipulation  |
\*---------------------------------------------------------------------------*/
FoamFile
{
    version     2.0;
    format      ascii;
    class       volScalarField;
    location    "0.75";
    object      nut;
}
// * * * * * * * * * * * * * * * * * * * * * * * * * * * * * * * * * * * * * //

dimensions      [0 2 -1 0 0 0 0];

internalField   nonuniform List<scalar> 
1924
(
0.00160061
0.001714
0.00173515
0.00174285
0.00173369
0.00176622
0.00179491
0.00179978
0.00187192
0.00169988
0.00185235
0.0019391
0.00164406
0.00191708
0.00199364
0.00200107
0.00179328
0.00200495
0.00154251
0.0019883
0.00142683
0.00212845
0.00181467
0.00208516
0.00212181
0.00207097
0.00210112
0.00166163
0.00174707
0.00160316
0.0018619
0.00211538
0.00151898
0.0017783
0.0016814
0.00182463
0.00212104
0.00173253
0.0016387
0.00186195
0.00210591
0.00148673
0.00208909
0.00173807
0.00160322
0.00177581
0.00160465
0.0016707
0.00108432
0.00119218
0.00139021
0.00162999
0.00212652
0.0012913
0.00181124
0.0016881
0.00154362
0.00161256
0.00162455
0.00212329
0.0017015
0.00199517
0.00160456
0.00152935
0.00132758
0.0016743
0.00208195
0.001895
0.00176585
0.00142217
0.00165706
0.00201943
0.00150833
0.00181711
0.00200314
0.00185577
0.00178413
0.00212292
0.00168526
0.00155664
0.00240122
0.00209546
0.00160547
0.001476
0.00149413
0.00189079
0.00164021
0.00198491
0.00109607
0.00159081
0.00207743
0.00208335
0.00179663
0.00185848
0.00169723
0.00132209
0.001774
0.00237526
0.00212244
0.00176975
0.00175928
0.00164901
0.00212412
0.00209442
0.00189038
0.00236827
0.00179714
0.00192959
0.00211746
0.00182957
0.00184555
0.00178243
0.00171254
0.00160501
0.00174761
0.00133696
0.00174699
0.00200931
0.00196492
0.00183787
0.0013646
0.000408004
0.00129895
0.00137258
0.00206266
0.00193175
0.00190358
0.00234882
0.00180602
0.000465985
0.00199375
0.00177814
0.000191582
0.00161537
0.00168688
0.00187115
0.00174067
0.00176172
0.00207365
0.00169828
0.00167347
0.00205187
0.000126146
0.000105484
0.00178013
0.00149826
0.00196834
0.00175751
0.00211484
0.00197551
0.00159077
0.000202421
0.00190703
0.00181321
0.00177551
0.0019619
0.000410941
0.00172529
0.00198305
0.000172197
0.00159856
0.00184868
0.0017986
0.000412891
0.00155251
0.00189676
0.00194191
0.000307885
0.00194657
0.00184126
0.00169805
0.00180299
0.00241399
0.00209628
0.00168138
0.00204886
0.00159179
0.000335328
0.00181036
0.00183176
0.00205566
0.00207022
0.00193888
0.00196582
0.00103376
0.00167976
0.00194599
0.00206026
0.00203528
0.0016972
0.00200238
0.00180605
0.00213042
0.00182142
0.00195185
0.000205986
0.00206899
0.00206644
0.00205563
0.00207541
0.000269816
0.00171154
0.00188113
0.0018274
0.00174034
0.00207732
0.0018518
0.00194112
0.00183305
0.000133794
0.000422187
0.00182017
0.00210687
0.00197381
0.00208152
0.00228689
0.00210954
0.00202889
0.00184504
0.00239866
0.00199852
0.00161048
0.00190808
0.00209503
0.00184613
0.00208825
0.00209134
0.00241657
0.00196903
0.00208771
0.000262301
0.00210724
0.00207413
0.000301835
0.00207906
0.00013087
0.00223872
0.0018709
0.00189165
0.000210027
0.00207521
0.00209379
0.00225357
0.00196905
0.000238011
0.00181434
0.00185227
0.00174861
0.00206076
0.00244497
0.00161249
0.000370641
0.00198972
0.00185141
0.00215928
0.00211222
0.00206154
0.00211574
0.00202911
0.00186715
0.00199864
0.00191708
0.00209385
0.00220606
0.00211146
0.00211345
0.00145464
0.00244365
0.00183469
0.000307905
0.00209147
0.00158648
0.00171447
0.00212073
0.00210951
0.00243773
0.00189033
0.00209321
0.00183593
0.00208852
0.00029369
0.000151823
0.00209221
0.00199055
0.00134479
0.00176996
0.00220501
0.000385726
0.00188707
0.00210632
0.00191056
0.00172148
0.00208764
0.00225907
0.0011902
0.00155573
0.00210343
0.00196406
0.00247204
0.00224446
0.000223567
0.00186426
0.00237025
0.00210793
0.0018873
0.0021218
0.00148624
0.00238359
0.00212371
0.00162035
0.00185956
0.00196762
0.00201009
0.00211428
0.00218016
0.00158266
0.00202602
0.00189438
0.00193436
0.00200747
0.00203228
0.00210124
0.00185517
0.001582
0.0021177
0.00243171
0.002098
0.002126
0.00174522
0.00217855
0.00210073
0.0020868
0.00209912
0.00194838
0.00241556
0.00209764
0.00211794
0.00193224
0.00201611
0.00188151
0.00244568
0.00159365
0.00211638
0.00198967
0.00210062
0.00202739
0.000238102
0.00206744
0.00198616
0.0021208
0.0020882
0.000228099
0.00034775
0.00237105
0.00183647
0.00246767
0.00103456
0.00190723
0.00212907
0.00136621
0.0020947
0.00223894
0.00238473
0.00211118
0.00210352
0.00187711
0.00210972
0.00210326
0.00203325
0.00195505
0.00244315
0.00203144
0.00212821
0.00213325
0.0020677
0.000290906
0.00223115
0.00208205
0.00211148
0.00206937
0.00203501
0.00248583
0.00211086
0.00202307
0.00210826
0.00244825
0.00232739
0.00210695
0.00206037
0.00190053
0.000314919
0.00208823
0.00210331
0.00209148
0.00196024
0.000118562
0.0020618
0.00211342
0.00228289
0.00201891
0.00156891
0.00249661
0.00198669
0.00187063
9.31034e-05
0.00211781
0.00245675
0.00208969
0.00213156
0.0020746
0.00210319
0.00205786
0.00192698
0.00189906
0.00203966
0.00210289
0.00245193
0.00235365
0.00196255
0.00181831
0.00236493
0.00211102
0.00245944
0.00187805
0.00210416
0.00243719
0.00226786
0.00163849
0.00210498
0.00208496
0.00211719
0.00245915
0.00209616
0.002023
0.0019792
0.00207219
0.00244228
0.0013528
0.00192649
0.00210956
0.0021164
0.00205798
0.00204402
0.00144631
0.00207322
0.000110574
0.0021025
0.00251779
0.00211347
0.00210974
0.00208814
0.00208677
0.00204211
0.00226085
0.00205804
0.00210733
0.00245873
0.00222878
0.00201984
0.00204132
0.002463
0.00211286
0.00162416
0.00199483
0.00201277
0.00210965
0.00209501
0.00205111
0.00192151
0.00164802
0.00207878
0.0020539
0.0021603
0.00245634
0.00211201
0.00247199
0.00147933
0.00193446
0.00207402
0.0020247
0.00210955
0.0019833
0.00211654
0.00209627
0.00210747
0.00209603
0.00206948
0.00213518
0.00209324
0.00225291
0.00143892
0.00208531
0.00203333
0.00180865
0.00242341
0.00246265
0.00205173
0.00211821
0.00206282
0.00157457
0.00243035
0.00218405
0.00212072
0.00210658
0.00186958
0.00209282
0.0023482
0.00206052
0.00208539
0.00244456
0.00249684
0.00246408
0.00211854
0.00205915
0.00211266
0.00211354
0.00211285
0.0021147
0.00194302
0.00203386
0.00204394
0.00231479
0.00246809
0.00244157
0.00205849
0.00211369
0.00241082
0.00169638
0.0020732
0.00205249
0.00203286
0.00195163
0.00206264
0.00187678
0.00200856
0.00210253
0.00200111
0.00211856
0.00172657
0.00208725
0.00211099
0.00156504
0.00154731
0.00251507
0.00245013
0.00208537
0.00171633
0.00150659
0.00208242
0.00232819
0.00207792
0.00211646
0.00206254
0.00204862
0.0020664
0.00189774
0.0017626
0.00140041
0.00156166
0.00149308
0.00209276
0.00205419
0.00190071
0.00211771
0.0021264
0.00198574
0.00247104
0.00193332
0.00195584
0.00209511
0.00245155
0.00209722
0.00206356
0.00211919
0.00253281
0.00211488
0.00182344
0.00191538
0.00242525
0.00194801
0.00211288
0.0020572
0.00194233
0.00211921
0.00135233
0.0016253
0.00241735
0.00198512
0.00245925
0.0015835
0.00207206
0.0020565
0.000336661
0.00138099
0.00145357
0.00242733
0.00211424
0.00231551
0.00210279
0.00204549
0.00137601
0.00238834
0.00206044
0.0014724
0.00207353
0.00196003
0.00211838
0.00248151
0.00202481
0.00200308
0.00207607
0.00218446
0.00185244
0.00231926
0.00211695
0.00208377
0.00207119
0.00202932
0.00138807
0.0015286
0.0024278
0.00246673
0.00190983
0.00208627
0.0020072
0.00232341
0.00177013
0.00206948
0.00211993
0.00190038
0.00203926
0.00208307
0.00238139
0.00201417
0.00206434
0.00138846
0.00207712
0.00149623
0.00209281
0.00243541
0.00211165
0.00211647
0.00210526
0.0020696
0.00208175
0.00231421
0.00209621
0.00214247
0.00209786
0.00212808
0.00208463
0.00211647
0.00171037
0.00206858
0.00181783
0.00211723
0.00208429
0.00248933
0.00207063
0.00191901
0.00195995
0.00164113
0.00249632
0.00243782
0.00211518
0.00144645
0.00207088
0.00205127
0.00207495
0.00209125
0.00212327
0.00247449
0.00147157
0.00232191
0.00223215
0.0024484
0.00196215
0.00206711
0.00148372
0.00187111
0.00241075
0.00240913
0.00209156
0.00210502
0.00207403
0.00202145
0.00211052
0.00154275
0.00240725
0.00172529
0.00156978
0.00206537
0.00203049
0.00208433
0.00209186
0.00238504
0.00189168
0.00251388
0.00211997
0.00210006
0.00245498
0.00203691
0.00209215
0.0019057
0.00141526
0.00209451
0.00210632
0.00207965
0.00241642
0.00208039
0.00208884
0.00157115
0.00210677
0.00157199
0.00207223
0.00212261
0.00211116
0.00208188
0.00231978
0.00121992
0.00253866
0.00207385
0.00248048
0.00183507
0.00205838
0.000226903
0.000154384
0.00141914
0.00201843
0.00241817
0.00210799
0.00193783
0.00154509
0.0021169
0.00210432
0.00207241
0.0021087
0.00209905
0.00209186
0.00206455
0.00146516
0.00210685
0.00246784
0.000267311
0.00199117
0.000313768
0.00210505
0.00186891
0.00208522
0.00242721
0.00207994
0.00206388
0.00196655
0.00147309
0.00150867
0.00207764
0.00159071
0.0014533
0.00157174
0.00208461
0.0021429
0.00210406
0.00214499
0.00243226
0.00209477
0.00191805
0.00208508
0.00213053
0.00174816
0.00209347
0.00205706
0.00209238
0.00159589
0.0020954
0.00194304
0.00239353
0.00209907
0.00208207
0.00180201
0.0020929
0.0020241
0.00249352
0.00202648
0.00194216
0.00205645
0.00245184
0.00209406
0.0020933
0.0023823
0.00155277
0.00193796
0.00211156
0.00238739
0.00209246
0.00212952
0.00244465
0.00239881
0.00117296
0.00209462
0.00210456
0.00157719
0.00203475
0.00207635
0.0014138
0.00248207
0.00221887
0.00144147
0.00207116
0.00209592
0.00212266
0.002551
0.00239896
0.00159143
0.00028849
0.00209697
0.00190313
0.00209397
0.00161777
0.00208483
0.00202062
0.00207143
0.0020753
0.00227807
0.00171138
0.00209963
0.00240869
0.00214123
0.00210206
0.00209151
0.0019277
0.00206475
0.00246401
0.00209754
0.00209282
0.0021173
0.00209121
0.00250265
0.0021004
0.00241157
8.61316e-05
0.00210831
0.000326269
0.00208942
0.0020831
0.00106404
0.00211185
0.00208922
0.00214082
0.00208758
0.0021129
0.00198211
0.00208946
0.00183989
0.00248865
0.00206635
0.00207555
0.00210457
0.00211263
0.00152024
0.00253983
0.00210205
0.00223005
0.00207346
0.00187462
0.00203907
0.00207627
0.00161143
0.00208325
0.00188775
0.00196072
0.0024226
0.00210596
0.00201801
0.00204005
0.00213382
0.0016816
0.00247579
0.0020079
0.000230888
0.00208191
0.00138638
0.00210481
0.00209451
0.00229291
0.00205475
0.00211001
0.00206996
0.002083
0.00208763
0.0020983
0.00215093
0.00244285
0.000265335
0.0021612
0.00236505
0.0023742
0.00238018
0.00207686
0.00205342
0.00210204
0.00195565
0.00253595
0.00211231
0.00149926
0.00209013
0.00213122
0.00231232
0.00174581
0.0020866
0.00229288
0.00208805
0.00144807
0.00238873
9.89365e-05
0.00155629
0.00207302
0.00180283
0.00208712
0.0021271
0.00251911
0.0025659
0.00207835
0.00215891
0.00160991
0.00239134
0.00197219
0.00245586
0.00208341
0.00198297
0.00207672
0.00214512
0.00208886
0.00209851
0.00212235
0.00205445
0.00191655
0.00210296
0.0021184
0.00207454
0.00207018
0.00250942
0.000128659
0.00240188
0.0012436
0.000347542
0.00205966
0.00215959
0.00204974
0.00192389
0.00207464
0.00210686
0.00211829
0.000161364
0.00211337
0.00209512
0.000132912
0.0020289
0.000123756
0.00195648
0.00209936
0.00161026
0.00242095
0.00211563
0.00197501
0.00165576
0.00205158
0.00220432
0.00216185
0.00208658
0.0017242
0.00249778
0.00212483
0.0025273
0.00208791
0.00211432
0.0013634
0.00203856
0.00207717
0.00208508
0.00196714
0.00208388
0.00207276
0.00205146
0.00213844
0.00209033
0.00207056
0.00216676
0.00142054
0.00137417
0.00212312
0.00212181
0.00204878
0.00243445
0.00215271
0.00212039
0.00251436
0.00212457
0.00209601
0.00210035
0.0019912
0.00209993
0.00184168
0.00211827
0.00210699
0.00212337
0.0019414
0.0020912
0.00217867
0.00235375
0.00147228
0.00216421
0.00189268
0.00209476
0.00204225
0.00236324
0.00237144
0.00203748
0.00205937
0.00212743
0.00215491
0.00230976
0.00216624
0.0023245
0.000136316
0.00250464
0.00248404
0.00203381
0.00213476
0.00205252
0.00164513
0.00155101
0.00145987
0.00206906
0.00238097
0.00208512
0.00158827
0.00165206
0.00214644
0.00216152
0.00158459
0.00216692
0.00202321
0.00208533
0.00198814
0.00207052
0.00210525
0.00208847
0.00240062
0.00207636
0.00208209
0.00203185
0.00215848
0.00224516
0.00197388
0.00217283
0.00240605
0.00194081
0.00209131
0.00222362
0.00205251
0.00212967
0.00206168
0.00202672
0.00212889
0.00135274
0.00199378
0.0024919
0.00212431
0.00212975
0.00241155
0.00174896
0.00209342
0.00179591
0.0021682
0.00213077
0.00205519
0.00203426
0.000374742
0.00211217
0.00213287
0.00215228
0.000513255
0.00202234
0.00213833
0.00118653
0.00199027
0.00213258
0.00246676
0.00203223
0.00210225
0.00203459
0.00214691
0.00210227
0.000636012
0.000391189
0.00217649
0.00201993
0.00210569
0.00235798
0.00203533
0.00191147
0.00212745
0.00215635
0.00210816
0.000681856
0.00208383
0.00131567
0.00202252
0.00207075
0.00208568
0.0020888
0.00194733
0.00207177
0.000127786
0.000131765
0.0019361
0.00200684
0.00217724
0.00231513
0.00212873
0.00210486
0.00206207
0.0019992
0.00211454
0.00232677
0.00234859
0.00200141
0.00202042
0.0021294
0.000684206
0.00247706
0.00210881
0.00205711
0.00209942
0.00213274
0.00212834
0.00212278
0.00235747
0.0023801
0.00170162
0.00213974
0.00211858
0.000152012
0.00165562
0.0019751
0.00216514
0.000670879
0.00216423
0.00214884
0.000331341
0.000201632
0.00202243
0.00239063
0.00210229
0.00209333
0.00214051
0.00227001
0.00199168
0.00204206
0.00162438
0.0020172
0.00204283
0.000166716
0.000663803
0.00217668
0.000270133
0.00181027
0.00201264
0.0024467
0.00215776
0.00225474
0.00212799
0.00205168
0.00185528
0.00197357
0.00208765
0.00201093
0.00130872
0.00168303
0.00207402
0.00206008
0.00198292
0.0021154
0.00210708
0.00202468
0.00208944
0.000377629
0.00217557
0.00207495
0.00209507
0.000660132
0.00209582
0.00208387
0.00124467
0.000308909
0.00211212
0.00150633
0.00210349
0.00210147
0.0019471
0.00204634
0.0021196
0.00201272
0.00208261
0.00202923
0.00211015
0.00213725
0.00157044
0.00245812
0.00209692
0.00212274
0.00218448
0.00193657
0.00212166
0.00201145
0.0015646
0.00212491
0.00216815
0.00232119
8.71765e-05
9.67759e-05
0.00205707
0.00215816
0.00213799
0.00163797
0.00211072
0.00195617
0.00194863
0.00132076
0.000656086
0.00233087
0.00217686
0.00204605
0.00228605
0.00210498
0.00209245
0.00212007
0.00206489
0.00203471
0.00207101
0.00220537
0.00208222
0.00201998
0.00173037
0.0016905
0.00211906
0.00215355
0.00201085
0.00207918
0.000128111
0.00201723
0.00208808
0.00208605
0.00209701
0.00206766
0.000310244
0.00236092
0.00143955
0.000389628
0.00200991
0.00207261
0.00210817
0.000168135
0.00148245
0.0021777
0.00189182
0.00200624
0.00212308
0.00205791
0.00227395
0.00209036
0.00236992
0.00184897
0.00191101
0.00242831
0.00211655
0.00212355
0.00209745
0.00202182
0.00187214
0.00122849
0.00206245
0.00211741
0.000371538
0.00207669
0.00065203
0.00207697
0.00213355
0.00201682
0.00213257
0.00210973
0.00214117
0.00207575
0.0015134
0.00202562
0.001901
0.0021266
0.00213259
0.00203641
0.00216834
0.000220183
0.00206614
0.00216238
0.00148586
0.00214876
0.00212128
0.00243824
0.00208051
0.000287392
0.00201711
0.0021378
0.002318
0.00033333
0.00112146
0.00217515
0.00230411
0.00176652
0.00185346
0.00211511
0.00202011
0.000248603
0.00212953
0.00214846
0.00212442
0.0021582
0.00202667
0.000175173
0.00212367
0.00229435
0.00190984
0.00205651
0.00213289
0.00199648
0.0020214
0.00204736
0.00193886
0.00234411
0.00191305
0.00212967
0.000341872
0.000338889
0.00161865
0.00201358
0.00223291
0.000173274
0.00202627
0.00215411
0.000283942
0.0020745
0.00218113
0.00213835
0.0022324
0.000235619
0.000334274
0.00227589
0.00214983
0.000648471
9.58421e-05
0.000111394
0.00173834
0.00154047
0.00227287
0.00170354
0.00210924
0.00214068
0.00209598
0.00215858
0.0021414
0.00202381
0.000146159
0.00205389
0.00015457
0.000158731
0.00212844
0.00214902
0.00146288
0.000331701
0.00208791
0.00184952
0.0021195
0.000467241
0.00179706
0.000468195
0.00205111
0.000362077
0.00153523
0.00133535
0.000468726
0.00218058
0.000318383
0.00218064
0.00214482
0.000295181
0.000472678
0.00228478
0.000479967
0.00235236
0.000214627
0.000484815
0.00217402
0.00127141
0.00228587
0.00223798
0.000202465
0.000329503
0.000488515
0.00206659
0.00184223
0.00206719
0.00207541
0.00222828
0.00216104
0.00222382
0.00204985
0.00210289
0.0020485
0.000459293
0.00222433
0.00126025
0.00215594
0.00233199
0.00204757
0.00185897
0.00203373
0.000179484
0.00144313
0.000503486
0.00221884
0.00225585
0.00204154
0.00218563
0.00217219
0.00179714
0.00227795
0.00205975
0.000327605
0.00233977
0.00216162
0.00173874
0.000609842
0.00241177
0.00228851
0.00222656
0.00216064
0.00205894
0.000450666
0.00207924
0.00211016
0.000437879
0.00213713
0.00216317
0.000647659
0.0022392
0.00228572
0.00214907
0.000520473
0.00223139
0.00209461
0.00211803
0.000419146
0.00207475
0.00218633
0.00223321
0.00206022
0.000149271
0.00208542
0.0024208
0.00210062
0.00214897
0.00206897
0.00223227
0.00145772
0.00214942
0.00136687
0.00214062
0.00174002
0.00215922
0.000140154
0.000609993
0.000605687
0.000325608
0.00213749
0.000316747
0.00209781
0.00225309
0.00136472
0.000357681
0.000178091
0.00119193
0.00207869
0.00227633
0.00224471
0.0014309
0.00233526
0.00232867
0.000410814
0.00211536
0.00170036
0.00210064
0.00211002
0.0022706
0.00209491
0.00215134
0.00173282
0.00240266
0.000536583
0.00207314
0.00211828
0.00240218
0.00212335
0.00131526
0.000224254
0.00223307
0.00027154
0.000228202
0.0021104
0.000229234
0.00209807
0.00217345
0.000230741
0.00213555
0.000601906
0.000233721
0.00211627
0.00240874
0.000401713
0.00023741
0.000239977
0.00212882
0.00209309
0.00212188
0.00217223
0.00218133
0.00211723
0.00223684
0.00161394
9.89296e-05
0.000103891
0.00024486
0.0021395
0.0022209
0.00212575
0.000614823
0.00212605
0.000301631
0.000611759
0.00215181
0.00214972
0.0006133
0.000394185
0.00180876
0.00126163
0.00025302
0.000616428
0.00211986
0.000175086
0.00241146
0.00213647
0.00216451
0.00234001
0.00215527
0.000220031
0.000214358
0.00224114
0.00212373
0.00020625
0.00215867
0.000549464
0.00213412
0.00218944
0.000134713
0.000305989
0.000304475
0.000596818
0.00182469
0.00240681
0.00216266
0.00217309
0.00214712
0.00219559
0.00241913
0.00215275
0.00217314
0.00216218
0.000201341
0.00219931
0.00241679
0.00215158
0.000382402
0.00227815
0.000261291
0.00216101
0.00164351
0.000129612
0.000265043
0.0023345
0.00217381
0.00217478
0.00222735
0.000302382
0.00221033
0.000126501
0.000358609
0.00063951
0.00218202
0.00218118
0.00218697
0.00217581
0.00226902
0.00223312
0.000618204
0.00216055
0.000324345
0.00032215
0.00240964
0.000197298
0.00219493
0.000630939
0.00216391
0.002238
0.00218028
0.0021843
0.00219319
0.00224212
0.00123504
0.00218702
0.000269211
0.000192888
0.00219542
0.00030854
0.000174162
0.00220474
0.00223238
0.00222385
0.000305955
0.00220365
0.000300161
0.000590448
0.00217301
0.00222709
0.000306942
0.000629671
0.0021797
0.00030771
0.00220839
0.00223307
0.000117234
0.00221037
0.0022444
0.00219468
0.000632699
0.00218491
0.00222169
0.000185862
0.000181783
0.00219296
0.0012066
0.00221146
0.00224493
0.00235198
0.0022815
0.00223388
0.0022076
0.000309402
0.00234687
0.00220494
0.00220248
0.00227224
0.00222594
0.00242504
0.000279054
0.000114972
0.00222819
0.00223291
0.00242129
0.00168151
0.00203633
0.000574286
0.000297255
0.00223463
0.00225371
0.000571734
0.00223162
0.000556564
0.000275462
0.00223148
0.00223161
0.00223244
0.00219502
0.000316394
0.000315519
0.00218783
0.000628737
0.00057687
0.000569567
0.00223041
0.00170696
0.00223862
0.00228918
0.00220909
0.00024975
0.000105288
0.00219896
0.00223029
0.00237235
0.000620233
0.000310364
0.00222022
0.00230162
0.00219893
0.00236596
0.00219689
0.00242395
0.00229156
0.000567886
0.000314888
0.00222773
0.000635488
0.00219056
0.000286602
0.00242901
0.000287965
0.000584776
0.000294301
0.00234537
0.000317598
0.00227125
0.00062803
0.00224584
0.0022542
0.000285433
0.000567158
0.00224973
0.000564487
0.000568278
0.00028348
0.00226913
0.000174526
0.00229057
0.000284452
0.00223301
0.00233727
0.00243589
0.000314448
0.000312825
0.000622641
0.000625949
0.000579643
0.00062769
0.000289464
0.000283721
0.00243199
0.00234197
0.00239799
0.0022071
0.000313987
0.000282575
0.000566915
0.00223618
0.00240128
0.00243539
0.00222124
0.00226692
0.00238999
0.00224011
0.000313179
0.000628902
0.00225072
0.000319395
0.000644682
0.000321121
0.000638932
0.0024509
0.00242988
9.25251e-05
0.000192612
0.000151779
7.56253e-05
0.000618463
0.000107191
0.000287486
0.000576666
0.00029126
0.000572183
0.000285467
0.000281456
0.000583341
0.000290434
0.00027914
0.000560748
0.000636573
0.000320746
0.000311472
0.000322624
0.000643129
0.000317228
0.000630785
0.000314576
0.000279283
0.000283162
0.000576416
0.000290629
0.000293333
0.000585855
0.000314707
0.00244771
0.00189978
0.00239097
0.00228416
0.00232017
0.000359421
0.000172661
0.00161253
0.00143889
0.00155855
0.000164147
0.001621
0.00206982
0.00128263
0.00163877
0.000354919
0.000236652
0.00198826
0.00161071
0.000126987
0.00015588
0.000125844
0.00205718
0.00103561
0.00163297
0.00211631
0.000132099
0.00129049
0.00205501
0.00164652
0.000116414
0.000115408
0.000115437
9.78811e-05
0.000143506
9.6274e-05
0.000105626
0.000101489
0.00156872
0.000307576
0.00157268
8.3888e-05
6.53758e-05
6.93462e-05
0.000320935
0.00205545
0.00202407
9.13113e-05
7.42063e-05
7.13348e-05
0.00160402
0.00163374
0.000233201
0.00141838
0.00215169
0.00120329
0.00102523
0.000236861
9.192e-05
0.000324887
0.000208447
0.000342591
0.000222082
0.000214654
0.000213857
6.76511e-05
6.94701e-05
0.00153587
0.00207085
0.00104401
0.0022098
0.000124232
0.00018517
0.000167239
0.00102572
0.00126139
0.000193506
0.00206985
0.0010475
0.00136817
0.00129361
8.32955e-05
0.00125197
0.00111018
0.00109966
0.000199442
0.00244706
0.00118717
0.00208272
0.000131948
0.00107316
0.00233919
0.00103523
0.000165816
8.9004e-05
0.00140924
0.00208023
0.00219711
0.00100536
0.00108512
8.10685e-05
0.00209269
0.00235767
0.00111964
0.00243701
0.00207728
0.000212099
0.0020704
0.00236142
0.00135082
0.00203529
0.00137117
0.00123445
0.00119097
5.7803e-05
0.00204366
0.000185667
8.41257e-05
0.00221602
)
;

boundaryField
{
    patch0
    {
        type            nutkWallFunction;
        Cmu             0.09;
        kappa           0.41;
        E               9.8;
        value           nonuniform List<scalar> 
4010
(
0.000153011
0.000153011
0.000201784
0.000201784
0.000204681
0.000204681
0.000204527
0.000204527
0.00020406
0.00020406
0.000207805
0.000207805
0.000209202
0.000209202
0.000210986
0.000210986
0.000215782
0.000215782
0.000200872
0.000200872
0.000215323
0.000215323
0.000222379
0.000222379
0.000178717
0.000178717
0.000220861
0.000220861
0.0002321
0.0002321
0.000232899
0.000232899
0.000179005
0.000179005
0.000229741
0.000229741
0.000145969
0.000145969
0.000228171
0.000228171
0.000135664
0.000135664
0.000246587
0.000246587
0.000183848
0.000183848
0.00023892
0.00023892
0.000245862
0.000245862
0.000217635
0.000217635
0.00023428
0.00023428
0.000196582
0.000196582
0.000205873
0.000205873
0.00018766
0.00018766
0.000212079
0.000212079
0.000245221
0.000245221
0.000144302
0.000144302
0.000173736
0.000173736
0.000198617
0.000198617
0.000176678
0.000176678
0.000245819
0.000245819
0.000202449
0.000202449
0.000189015
0.000189015
0.000185281
0.000185281
0.000244144
0.000244144
0.000141029
0.000141029
0.000242352
0.000242352
0.000171123
0.000171123
0.000160131
0.000160131
0.000209202
0.000209202
0.000190089
0.000190089
0.000192186
0.000192186
0.000105766
0.000105766
0.000115259
0.000115259
0.000132616
0.000132616
0.000177562
0.000177562
0.000246319
0.000246319
0.000124054
0.000124054
0.000213379
0.000213379
0.000199272
0.000199272
0.000146683
0.000146683
0.000167264
0.000167264
0.000172608
0.000172608
0.000245931
0.000245931
0.000171889
0.000171889
0.000232741
0.000232741
0.000150973
0.000150973
0.000182193
0.000182193
0.000128286
0.000128286
0.000196882
0.000196882
0.00022543
0.00022543
0.000199947
0.000199947
0.00020814
0.00020814
0.000135074
0.000135074
0.000180929
0.000180929
0.000235056
0.000235056
0.000179631
0.000179631
0.000205788
0.000205788
0.000221749
0.000221749
0.000216405
0.000216405
0.000205754
0.000205754
0.000230829
0.000230829
0.000197485
0.000197485
0.000146746
0.000146746
0.000259218
0.000259218
0.000242785
0.000242785
0.00018986
0.00018986
0.000151389
0.000151389
0.000141856
0.000141856
0.000190895
0.000190895
0.000192887
0.000192887
0.000231197
0.000231197
0.000106788
0.000106788
0.000161606
0.000161606
0.000224318
0.000224318
0.000210968
0.000210968
0.00021162
0.00021162
0.000219219
0.000219219
0.000171415
0.000171415
0.000136393
0.000136393
0.000205081
0.000205081
0.000256226
0.000256226
0.000245923
0.000245923
0.000175747
0.000175747
0.000206513
0.000206513
0.00017614
0.00017614
0.000246115
0.000246115
0.000217261
0.000217261
0.000222769
0.000222769
0.000252703
0.000252703
0.000209798
0.000209798
0.000209708
0.000209708
0.000244579
0.000244579
0.000215291
0.000215291
0.000211833
0.000211833
0.000207968
0.000207968
0.000201369
0.000201369
0.000190017
0.000190017
0.000201976
0.000201976
0.000128252
0.000128252
0.000206431
0.000206431
0.000233728
0.000233728
0.000228797
0.000228797
0.000209759
0.000209759
0.000130597
0.000130597
4.35013e-05
4.35013e-05
0.000124525
0.000124525
0.000141835
0.000141835
0.000238034
0.000238034
0.00022266
0.00022266
0.000211801
0.000211801
0.00024874
0.00024874
0.000210588
0.000210588
4.9083e-05
4.9083e-05
0.000223825
0.000223825
0.000207724
0.000207724
1.90429e-05
1.90429e-05
0.000191153
0.000191153
0.000183416
0.000183416
0.000215002
0.000215002
0.000203476
0.000203476
0.00020581
0.00020581
0.000237751
0.000237751
0.00019999
0.00019999
0.000196301
0.000196301
0.000238685
0.000238685
1.52979e-05
1.52979e-05
1.52979e-05
1.25153e-05
1.25153e-05
1.25153e-05
0.000210297
0.000210297
0.000142086
0.000142086
0.000209392
0.000209392
0.000182552
0.000182552
0.000244844
0.000244844
0.000230221
0.000230221
0.00018802
0.00018802
2.29036e-05
2.29036e-05
2.29036e-05
0.000212671
0.000212671
0.000213433
0.000213433
0.000209383
0.000209383
0.000230312
0.000230312
4.37831e-05
4.37831e-05
0.000202151
0.000202151
0.000223596
0.000223596
1.96844e-05
1.96844e-05
0.000189154
0.000189154
0.00021618
0.00021618
0.000212569
0.000212569
4.39777e-05
4.39777e-05
0.000182841
0.000182841
0.000217724
0.000217724
0.00022814
0.00022814
3.36411e-05
3.36411e-05
0.00021836
0.00021836
0.000214734
0.000214734
0.000199777
0.000199777
0.00021272
0.00021272
0.000258454
0.000258454
0.000234017
0.000234017
0.000197858
0.000197858
0.000232739
0.000232739
0.000187899
0.000187899
3.80559e-05
3.80559e-05
0.000175575
0.000175575
0.000216336
0.000216336
0.000239154
0.000239154
0.000240022
0.000240022
0.0002171
0.0002171
0.000229443
0.000229443
0.000101355
0.000101355
0.000198226
0.000198226
0.000214732
0.000214732
0.000240134
0.000240134
0.000227647
0.000227647
0.000196821
0.000196821
0.000212269
0.000212269
0.000212362
0.000212362
0.000237821
0.000237821
0.000215021
0.000215021
0.000228021
0.000228021
2.32751e-05
2.32751e-05
2.32751e-05
0.000216305
0.000216305
0.000239707
0.000239707
0.000239015
0.000239015
0.000229356
0.000229356
2.98506e-05
2.98506e-05
0.000201523
0.000201523
0.000220604
0.000220604
0.000215125
0.000215125
0.000204778
0.000204778
0.000241536
0.000241536
0.000218498
0.000218498
0.000225606
0.000225606
0.000209787
0.000209787
1.61405e-05
1.61405e-05
1.61405e-05
4.48792e-05
4.48792e-05
0.000213069
0.000213069
0.000241836
0.000241836
0.000230745
0.000230745
0.000212198
0.000212198
0.000241607
0.000241607
0.000242333
0.000242333
0.000217423
0.000217423
0.000217417
0.000217417
0.000255209
0.000255209
0.000233816
0.000233816
0.0001904
0.0001904
0.000224615
0.000224615
0.000240612
0.000240612
0.000215762
0.000215762
0.000218223
0.000218223
0.000234499
0.000234499
0.000261101
0.000261101
0.000230932
0.000230932
0.000211522
0.000211522
3.11884e-05
3.11884e-05
0.000244341
0.000244341
0.000220674
0.000220674
3.43583e-05
3.43583e-05
0.000218358
0.000218358
1.57282e-05
1.57282e-05
1.57282e-05
0.0002492
0.0002492
0.000220499
0.000220499
0.00022286
0.00022286
2.36955e-05
2.36955e-05
2.36955e-05
0.000240422
0.000240422
0.000220577
0.000220577
0.000247956
0.000247956
0.000228794
0.000228794
2.72643e-05
2.72643e-05
0.000209793
0.000209793
0.00021732
0.00021732
0.000203108
0.000203108
0.000226067
0.000226067
0.000265769
0.000265769
0.000164551
0.000164551
3.98546e-05
3.98546e-05
0.000233298
0.000233298
0.000218082
0.000218082
0.000238433
0.000238433
0.000243168
0.000243168
0.000207991
0.000207991
0.000214126
0.000214126
0.000236574
0.000236574
0.000219503
0.000219503
0.000232461
0.000232461
0.000225646
0.000225646
0.000232404
0.000232404
0.000235191
0.000235191
0.000244846
0.000244846
0.000230618
0.000230618
0.000137982
0.000137982
0.000263044
0.000263044
0.000216002
0.000216002
3.4903e-05
3.4903e-05
0.000211762
0.000211762
0.000187022
0.000187022
0.000201861
0.000201861
0.000238329
0.000238329
0.000244186
0.000244186
0.000263786
0.000263786
0.000219622
0.000219622
0.000240464
0.000240464
0.000216447
0.000216447
0.000211921
0.000211921
3.22809e-05
3.22809e-05
1.75617e-05
1.75617e-05
1.75617e-05
0.00024282
0.00024282
0.00023335
0.00023335
0.00012886
0.00012886
0.000202021
0.000202021
0.000247204
0.000247204
4.13299e-05
4.13299e-05
0.000222039
0.000222039
0.000213383
0.000213383
0.000224943
0.000224943
0.000195088
0.000195088
0.000222656
0.000222656
0.00024604
0.00024604
0.000115044
0.000115044
0.00018274
0.00018274
0.000242454
0.000242454
0.00022828
0.00022828
0.000264503
0.000264503
0.000250478
0.000250478
2.50946e-05
2.50946e-05
2.50946e-05
0.000219918
0.000219918
0.000256879
0.000256879
0.000243874
0.000243874
0.000220115
0.000220115
0.000246144
0.000246144
0.000140678
0.000140678
0.000258473
0.000258473
0.000218242
0.000218242
0.00019159
0.00019159
0.000216579
0.000216579
0.000192196
0.000192196
0.000235343
0.000235343
0.00023882
0.00023882
0.000238926
0.000238926
0.000150497
0.000150497
0.000235679
0.000235679
0.000221874
0.000221874
0.000227502
0.000227502
0.000234871
0.000234871
0.000223223
0.000223223
0.000212634
0.000212634
0.000218941
0.000218941
0.000187082