/*--------------------------------*- C++ -*----------------------------------*\
  =========                 |
  \\      /  F ield         | OpenFOAM: The Open Source CFD Toolbox
   \\    /   O peration     | Website:  https://openfoam.org
    \\  /    A nd           | Version:  8
     \\/     M anipulation  |
\*---------------------------------------------------------------------------*/
FoamFile
{
    version     2.0;
    format      ascii;
    class       surfaceScalarField;
    location    "0.75";
    object      phi;
}
// * * * * * * * * * * * * * * * * * * * * * * * * * * * * * * * * * * * * * //

dimensions      [0 3 -1 0 0 0 0];

internalField   nonuniform List<scalar> 
2805
(
-6.30308e-05
0.000187575
-0.000124544
-0.000111616
4.85857e-05
-0.00686339
-0.00482627
0.0116897
0.00771824
-0.0145816
-0.00107998
0.00096836
-0.00397468
0.0116929
0.010385
-0.0143597
-0.000703516
0.0110885
0.0127365
-0.0134401
-0.0129105
0.00808426
0.000825768
0.0119108
0.0132064
-0.0123806
-0.000126197
-0.000479326
0.000605523
0.00486503
0.00834133
0.0133179
-0.0164983
0.00318043
-0.00296596
0.0162839
0.000873503
-0.0009997
0.0159132
-0.0110482
7.2569e-05
0.000115006
0.00359529
0.0123179
0.000424839
-0.000702476
0.000277637
0.00271789
0.000687342
-0.00340523
-0.00118952
0.000626509
0.000563014
0.0113271
-0.00773181
0.000228327
0.00248956
0.000194908
-0.00101399
0.000819082
0.00344747
-0.00325256
0.00511023
-0.00497239
-0.000137844
-0.00447153
0.0048574
-0.000385872
-0.0109525
0.00317269
0.00777983
-0.000583455
-0.000606068
-0.0020143
0.00224262
4.69118e-05
7.58388e-05
-0.000122751
-0.000354383
0.00122789
-0.000915316
0.00602555
-0.000522037
0.00114855
0.000946148
-0.00296044
-0.00422735
-0.000244181
0.000140853
-0.0110934
-0.000937838
0.00159596
-0.000649811
-0.000313431
0.00073827
0.000581969
0.00125534
-0.000692327
0.00976839
-0.00128689
-0.0084815
-0.00466305
0.00482216
-0.000159113
3.49015e-05
0.000167764
-0.000202665
-0.00403064
0.0205425
-0.0165118
-0.000269001
-8.35757e-05
0.000352576
0.000192991
0.000187741
-0.000380732
0.000158051
-0.00120862
0.00105057
-0.000792757
-0.00252254
0.00320989
0.00121521
-0.00105716
-0.00459117
-1.61698e-05
0.00460734
-0.0138258
0.000107471
0.00573775
0.00661598
-0.000878229
-0.00644386
0.0033995
0.00304436
0.000481732
0.000773609
0.0112627
-0.0142287
0.00104951
-0.000567781
-0.00546955
-0.00137675
0.00684629
-0.00122733
0.00244254
0.00553684
0.0150056
-0.00530785
0.000530901
0.00477695
0.00112544
-0.00164748
0.00019435
-0.000239707
-0.000968911
0.000682838
-0.000734808
5.19692e-05
-0.00303935
0.0143021
-0.00532869
-0.00855488
0.0117276
0.00572683
-0.0142817
0.00117965
0.00054678
-0.00172643
0.0221869
-0.0166501
-0.0071688
0.0128956
-0.00645156
-0.0100603
0.000809807
0.0139623
-0.00807366
-0.00588867
0.00333625
0.000111223
-0.00255343
-0.00574332
0.00829675
-0.000334022
-0.000368454
-7.76325e-05
0.000847451
0.000277992
0.00164359
-0.00480336
-0.011695
-7.60097e-05
0.000413637
0.000269201
-0.000983865
-0.00432399
0.0023258
0.00101045
0.000230997
0.00499537
-0.00554934
0.00055397
0.000965291
-0.000551654
0.000363091
-0.00159042
0.00790158
0.0142853
0.00614859
0.00781374
-0.0057589
-0.000684955
0.00146259
-0.000282946
-0.00807669
0.00924985
-0.00117316
0.000631269
-0.000745714
-0.00501319
0.00312811
-0.000802311
0.00417561
0.000819758
-0.0155145
0.00100755
0.0145069
-0.00642952
-0.00110379
0.00753331
0.00341029
0.000765314
0.00373318
-0.000333682
-0.00531834
-0.00580847
0.01371
0.0064757
-0.00628135
-0.00530732
0.00850051
-0.00563803
-0.00286248
0.00680725
-0.0132588
-0.000582035
0.000213581
0.00361297
0.00463844
0.0116454
0.00262255
-0.00236949
-0.000253065
-0.00984283
-5.08002e-06
-7.25525e-05
-0.000344158
0.000357087
-1.29284e-05
0.000465378
-0.000312834
-0.00700319
0.00753409
-0.000135847
0.00553077
-0.00539493
0.00195133
-0.00140455
0.0112839
-0.0184527
0.00115736
-6.43719e-05
0.000253275
-0.000188903
0.0106679
-0.0164764
0.00282033
-0.000306981
0.000985996
-0.000679015
0.00594708
-0.000161488
0.00643781
-0.00561805
0.00738514
-0.00762932
0.0111528
0.000174308
0.000718226
0.0166492
-0.0100425
0.000376542
-0.000376542
-0.000195971
0.000195971
-0.00615331
0.00976627
-0.000185666
0.000121294
0.00327445
0.000727784
0.00247581
0.00125737
0.000544444
0.00207811
-0.00734505
0.00160173
-0.000344158
0.00102625
0.00092508
-0.00535838
0.00817871
0.00553962
0.00106315
0.00446762
0.000330318
2.67691e-05
-0.00880248
-0.00275579
0.0134237
-0.000166486
-0.00229667
0.00246315
-0.00877674
0.00313871
-0.00203341
0.00440789
-0.000333381
-1.07776e-05
0.00226035
-0.00338336
0.00112301
0.00104288
0.00711168
-0.00604853
0.000127553
0.000202765
0.00641335
-0.0162562
-0.00446069
-0.000582488
0.000658327
-0.00404086
0.00958048
-0.00202236
-0.0134921
0.00244315
0.00282336
0.00226369
-0.0029861
0.000722419
-0.000996905
-0.00070305
0.000755019
0.000606612
0.000541934
-0.00382797
0.00823586
0.00356196
0.000923613
-0.00448557
0.0177929
-0.0131545
-0.0112276
-0.00350153
0.0147291
0.00196387
0.00514781
0.000170221
-0.000253797
8.92585e-05
7.85055e-05
0.00215984
-0.00113359
0.000912789
0.00361421
-0.00452699
-0.010063
-0.00822604
0.0113647
0.00230733
0.000967118
0.00704767
0.0116686
-0.0144244
0.00575251
0.00805604
-0.00609217
-0.000333381
0.000716453
0.00362327
-0.00433972
-0.000901945
0.00316563
0.00292895
-0.00383089
0.00232211
0.00084352
-0.000318721
0.00638577
-0.00534288
0.00892063
-0.00187296
0.00447475
-0.00191668
0.00766919
0.00161903
0.000540811
0.00165286
0.000985996
-0.000334488
1.10722e-06
0.00307262
0.016328
-0.00549741
-0.0108306
0.0029285
0.00512754
0.00433066
0.0122915
0.00255812
-8.23092e-05
-0.000678776
0.00700395
-0.0063353
-0.0121174
0.00378885
0.00813027
0.000337239
0.0125686
0.00375941
0.0100378
-0.000115154
0.00373842
-0.000982204
0.0126508
-0.0119081
-0.00194651
0.0138547
0.00854903
-0.00562053
0.00351789
-0.00119578
-0.000695184
0.000679015
0.00583954
-0.00179518
-0.00404437
0.00385256
0.00385056
-0.00396572
-0.00229667
-0.0164684
0.0109709
0.000195961
0.00680799
0.00721933
-0.00688209
-0.000334488
0.0078326
0.00996032
0.00309694
0.00137781
-0.00639632
-0.010072
0.00239208
-0.000773052
0.00117627
-0.00246315
0.00110121
0.00792944
0.00210837
0.0171087
0.00166805
-0.0139305
-0.000799723
-0.000226002
-0.000108486
0.00388018
0.00466885
-0.00227026
0.0058297
-0.0158927
0.0152366
-0.00266805
0.000161972
0.00065711
-0.00448093
0.00355139
0.000929537
-4.20446e-05
0.0081254
0.00510576
0.00112716
0.000872517
0.00157063
0.0139595
0.00106604
0.00117658
-0.00530494
-0.00897677
0.000338888
0.000399382
-0.0094187
-0.00407342
0.00257393
0.000173878
0.00260937
0.00090852
-0.0050847
0.000499214
0.000633108
0.0032227
-0.00385581
0.00204164
0.0037979
-0.0086667
0.000593039
0.0104497
0.000924474
0.00292609
0.00590845
0.00265678
-0.000323801
-0.000226002
-0.00277904
0.00858048
-0.0047003
-7.48398e-05
2.28726e-06
0.010465
-0.0114472
-0.000253275
2.7273e-05
0.00256488
0.00556051
-0.00138399
0.00793423
-0.00680707
-0.00425105
-0.00684233
0.00412728
-0.00320281
0.0145432
-0.00357227
-0.00016715
-0.00285713
-0.00052623
0.0140675
0.00116911
0.00179112
0.000600964
-0.015754
0.0118752
-0.000973635
-0.0140821
0.00768576
0.00182681
0.00073131
0.0068305
0.0036192
-0.000735359
0.00298012
-0.00224476
-0.000168952
0.00050784
-0.00747394
-0.00660815
0.0041845
-0.000351233
0.00164202
0.00139961
-0.000855166
0.00480426
0.00377623
0.00233851
0.000972002
-0.00331051
-0.00859473
0.000436571
0.000620192
0.00939539
0.00231369
0.00574773
-0.00955599
0.00361011
-0.00100074
0.00726223
-0.00414074
0.00128361
-0.00233031
-0.000922252
-0.00804092
-0.00271999
0.0107609
0.00294667
0.00248734
0.00252708
-0.00263852
0.0131035
0.0040346
0.000775566
0.00400139
0.00320676
-0.000868253
0.0159371
-0.00258855
-0.00952885
0.00220173
0.00192555
0.00508601
0.00826495
-0.00595126
0.00813056
-0.0033263
0.000455159
-0.00998743
-0.00794718
0.00124667
0.00124289
0.00238176
-0.000590639
-0.000102505
0.01417
0.0118588
0.00244326
0.00676146
0.000772622
0.000540496
0.000859114
-0.000222502
0.000804471
0.000694939
0.000428067
-0.0121641
0.00859184
0.00148053
-0.00938814
-0.00454237
-8.92489e-05
0.000198942
-0.000109693
0.00486184
0.00453354
0.00387834
0.000306162
0.00022672
0.000136371
0.00457892
-0.00237719
0.0122579
-0.000382709
-0.00447834
0.00323874
0.000559156
0.000843539
0.00812434
0.00221867
0.00280277
0.000807335
0.00497359
0.00315697
0.00356465
-0.0123852
0.00491126
0.00122074
-0.000473107
0.0161551
-0.00832249
0.000593889
0.000416561
-0.000755019
0.000442186
0.0121554
0.0173505
-0.000197619
0.0013742
5.07572e-05
0.00671071
0.0119096
-0.0134616
-0.00090914
0.00588959
0.00303385
-0.00814461
-0.00424059
-0.0115653
0.00401431
0.000755861
0.00217308
0.000535155
0.00267161
0.00282928
0.0037102
0.000291187
0.00983337
-0.00626872
0.000427855
0.000229255
0.00104527
0.00688321
-0.00952173
0.0140887
-0.000173567
-1.20987e-05
-0.00664207
-0.00911193
0.00175633
0.000625422
0.0031279
0.000127553
0.00328078
0.00180522
-0.0104811
0.000886469
0.00959468
0.00448282
0.00123233
0.00338856
0.00119037
0.00305278
-0.00251762
0.0107883
-0.00592647
0.00898107
0.00707402
-0.00210042
0.00125946
0.000567352
-0.00617542
-0.00249129
-0.00920257
0.00881986
0.000216454
-0.00270863
0.00249218
0.0162371
-0.000610724
0.00347992
-0.000677148
-0.00988811
0.0020815
-0.000857383
0.00170092
-0.01009
0.00561165
0.00507685
-0.0136716
-0.0106394
0.00379711
2.33399e-05
0.00219533
0.000192046
0.000680471
0.00383994
-0.0088954
0.00123695
0.000433164
0.00272856
-0.00316172
0.00650707
0.000608608
-0.00517873
-1.11365e-05
0.000493114
-0.000481977
0.00271235
0.000516818
0.00396339
0.000598173
0.000157688
0.00154987
-0.000208718
-0.000317511
0.00716436
-0.000453656
0.00479008
-0.00140152
-0.0161709
0.00058452
0.00386932
0.000144992
0.00419598
0.00269495
0.00532609
-0.00243768
0.00932089
0.000827428
0.00351061
-0.00911682
0.000972212
0.0102916
0.00186379
-0.00100093
0.00143409
0.00886506
0.0030445
-0.00368604
-0.00630139
-0.000432366
0.00147764
-0.000535559
0.00097213
0.00107718
0.00248932
-0.000732984
0.0041605
0.00484291
-0.000360089
0.00416416
0.00290986
0.00827286
-0.0104115
-0.000315473
0.0015478
-0.000378522
0.0034313
-0.000503829
-0.00905216
-0.00823036
0.00219334
0.00128658
-0.00822841
-0.00712869
0.0018
0.007591
0.00319731
0.00131576
0.00584861
0.00972683
0.00436186
-0.00343204
0.00993911
0.00306259
0.00438926
0.00176297
0.00138545
8.66679e-05
0.00052194
0.0124551
0.00370004
1.34026e-05
0.00122355
-0.00637036
0.000496703
0.000693873
0.00235004
0.00187743
-0.00659703
0.0059863
-0.00610844
-0.00377966
0.0101808
0.0033468
0.000493136
0.000244356
-0.00387857
-0.000262168
-0.000985383
0.0144876
0.00328624
-0.000559787
0.00107661
0.0010818
0.00132822
-6.8763e-05
0.00665624
0.00216361
5.34315e-05
0.000773997
-0.000423356
0.00311831
-0.0061159
0.000937172
-0.00344926
-0.0100123
-0.00859973
0.00349179
0.00136038
0.00429101
-0.00013051
0.00393092
0.000917852
0.00258836
0.00484082
0.0127713
-0.00070587
0.00213996
0.00852004
-0.000224091
-0.00867131
-0.00514369
0.00451734
0.00451391
-0.000521525
-0.0110438
0.000199565
0.000574044
0.00160123
0.0060811
-0.00191694
0.00143387
-0.000356697
0.0111574
-0.00356641
0.00300794
0.000654556
0.000192895
0.00192093
0.000568386
-0.00126921
0.00565846
0.00783868
-0.00106986
0.0032632
0.000164029
0.00122142
-0.000213534
0.0019765
-0.00469275
0.000814179
0.00053574
0.000274067
-0.0125612
-0.00311539
-0.00511497
-0.000167682
0.000861555
-0.00630415
-0.00433528
-0.00393547
0.00255873
-0.00163149
0.0074801
-0.00843584
0.00599816
0.000354258
0.0020993
0.000963299
0.0143222
-0.000479776
0.00282981
-0.000390791
0.000635147
0.00087101
0.000806177
2.19933e-05
0.00102857
-4.25603e-06
-0.000257912
-0.00333158
0.00124063
0.000728004
0.00172335
0.00259243
0.00359241
-0.00243064
-0.00652548
0.0153011
-0.00680798
0.00290477
-0.00689505
0.00114124
0.000383206
0.00318828
0.000303512
-0.000529952
-0.015641
0.00452778
-0.000596856
0.000254356
0.000287577
0.00170722
-0.00168046
0.000695079
-0.000146996
-0.00222249
0.000267432
0.000650419
0.00608226
0.00409856
0.00937436
0.00305777
0.0017411
0.000701439
0.00110978
0.00302541
0.0029609
0.00131205
-0.000771553
0.00200387
-0.0106036
-0.00666357
9.92695e-05
0.00150196
0.00166019
0.000254231
-8.03536e-05
0.0017631
0.00130264
-0.000743291
0.00325857
-0.0089834
-0.00468818
0.00402697
-0.000447938
9.12408e-05
0.000267248
-4.05283e-05
0.00518902
0.00374773
0.00233337
-0.00448414
0.000548671
-6.3909e-05
0.00307185
0.00635405
0.00462513
0.00449078
-0.0127192
-0.00272923
0.000298587
0.000973319
0.000338729
0.00132069
0.00616506
0.000447252
0.00337314
-0.0097435
0.00224393
0.00246123
0.00501887
0.00131453
0.0027396
-0.00081867
-5.91555e-05
0.000760594
-0.00135157
0.0039103
0.00107326
-0.00621695
-0.00666744
0.00186106
0.00102019
0.000220448
-0.00266934
0.010508
-0.00957368
7.28798e-05
0.000733298
0.00854349
0.0058155
0.00108373
-0.000212724
0.00689712
0.00587421
-0.000200805
0.000555063
0.00487126
0.000411177
0.0027659
0.000208093
0.000434342
-0.000212974
-0.00024644
0.001108
-0.00404171
0.00169461
0.00195324
0.000639194
0.000380639
0.00252413
-0.000456763
0.000839968
0.000586597
0.000741621
0.00339217
0.00512786
0.00167061
0.0103746
0.00208046
0.000894801
-0.00165629
0.00238429
0.00225675
0.00422439
0.000360457
0.00309334
-3.55696e-05
0.00241021
-0.00231897
-0.00552152
0.0010452
0.000936739
0.000269689
0.000637296
0.000472488
-0.0115737
0.00584882
-0.0127439
0.00249648
-0.00268415
0.00104696
0.000273734
0.0109957
-0.000691087
0.00235127
0.00345249
0.00101958
0.00122436
0.00927938
-0.0158049
-0.000404349
0.000901052
0.00955724
-0.00475479
0.00670503
0.00624429
0.00807789
0.00109018
0.000212461
0.000804139
-0.000356887
-0.00244635
0.00314143
0.00051455
-0.00236698
0.00738585
0.00583115
-0.00180418
0.0012674
0.00859108
0.00439579
-0.00113722
0.000328838
-8.69277e-05
-0.000241911
0.00551957
-0.00626286
0.00137059
-0.00766047
-0.000576258
0.0145119
7.20175e-06
0.00042714
0.000753919
-0.00042451
0.00561353
0.000591414
0.00505421
-0.0176154
0.00354371
0.00130028
0.000370328
0.0117348
-0.0184022
0.00101532
-0.000604147
-0.000646854
0.00120192
0.00076938
0.00142897
0.000334125
0.000461141
0.000826005
0.000868604
0.00084717
-0.000697374
0.000159293
0.00260661
0.0016932
0.00156267
0.0014652
0.000118879
0.000209959
0.00068388
0.000361319
0.00195954
0.000297214
-0.00203788
-0.000281081
0.00470335
0.000159163
-0.000234003
-0.0105868
0.00369473
0.00484877
-0.00343982
0.000535642
-0.000175185
0.0121185
-0.000442186
0.000275035
0.000470247
0.000290347
0.00182382
0.000915783
0.0100153
-0.014057
0.00192397
8.15727e-05
-0.000984817
0.000836239
0.000148578
0.00252464
0.00346416
0.000957615
0.00259161
0.00146215
0.00297738
0.00440847
-0.00102256
0.00164143
0.00312274
-0.000626258
-0.00407007
-0.000825514
0.000284249
0.000541265
0.00213131
-0.000428066
0.000110555
0.000531514
0.00292098
0.000178754
0.00251057
-0.00272853
0.00120848
5.89225e-05
0.000830454
-0.000243857
0.00990234
0.00233639
-0.00222648
-0.000109909
0.0018472
-0.00919908
0.0048638
0.000804372
-7.27236e-05
-0.000100844
0.00667211
0.00383012
-0.0106381
0.00198552
0.0134816
-0.00310699
0.0153871
-0.0201419
0.00157881
0.000795529
-0.000204115
0.000514392
0.000332779
0.000533064
0.00301064
0.000709994
0.0006606
0.000893113
0.000308804
0.00421735
0.00677833
0.00132025
-0.000151643
-0.000106269
0.000996279
0.00046892
0.00133777
0.00955903
-0.00641761
0.00313813
0.000875711
0.000534809
0.000799841
0.000369172
0.0143889
-0.0199104
-0.00202771
0.0106188
0.00248866
0.000322197
0.00482727
-0.014401
0.0117779
-0.000993297
0.00145444
0.00591817
-0.00030464
-0.000782456
0.000877102
-0.00225484
0.00197375
0.00643272
0.00129349
0.000234646
0.00228999
-0.00301509
0.00329617
0.000493536
0.000340128
-0.000833664
0.000468857
-0.000796283
0.0015502
-0.000905407
0.000894955
6.26592e-05
-0.00623156
0.00289998
0.0194658
-0.0229056
0.0116377
-0.00167781
0.00906612
0.00215774
-0.000233777
0.00345404
0.00654178
-0.0181155
0.0134156
-0.014113
-0.000934099
0.000825514
-0.000866043
0.000111581
0.00158162
0.00064098
-0.000462226
0.00119728
0.00321119
0.000748924
0.000813742
0.000953878
0.00248736
-0.00274042
0.000463328
-0.00148589
0.00418057
-0.00632891
0.0110323
0.00140952
-0.00149846
0.00409008
-0.000641413
0.00324529
0.00549196
-0.0020278
0.00153149
0.000436865
0.0031743
0.0089442
0.0214409
-0.025511
0.000424905
0.00208566
0.000912049
0.000408205
-9.13247e-05
0.00167013
0.00124483
-0.00322654
-0.0025491
0.00374638
0.0181111
-0.0208397
0.00035486
-0.00035486
0.0152348
0.000866043
-0.00065795
-0.00111773
0.00142654
0.000563416
0.000312295
0.000113516
-0.00207933
-0.000175509
0.000336704
0.00219867
0.00192454
0.00474757
0.00117747
0.00787463
0.00304165
-0.00105613
0.000765237
-0.000230429
-0.000444588
0.00995263
0.000222013
0.000577829
-0.001616
0.000211771
0.00292635
0.000673119
0.000968313
0.0141343
-0.0247211
0.00294286
0.00530879
0.000690933
0.00717303
-0.00334291
0.00136124
-0.000992069
0.00124118
5.23087e-05
0.00148686
0.000626075
0.000303012
0.000105549
-0.00203079
0.00166178
-0.001039
0.00122005
-0.000181049
-0.000528984
0.00398303
-0.00202605
-0.00146473
-0.000700276
-0.000275035
0.000199025
0.00121048
-0.00374683
0.00106268
0.00200653
0.00513574
-0.00581084
0.000242526
0.000587928
-0.000332532
0.00128641
0.00100741
0.00418663
0.00154319
0.00206228
-0.00171731
0.00496259
0.0236984
-0.0267135
0.000323801
-0.000164638
0.00785938
0.0056222
0.0132905
-0.00685782
0.00687294
0.0168759
-0.0135798
0.00202831
0.00703781
-0.000124648
0.000721205
0.0110567
0.000676174
-0.000239309
-0.00785917
0.00229743
9.65674e-05
0.000707805
0.000566376
0.000678451
0.0013376
-0.0110195
0.0107148
0.000908062
0.000501462
0.000936863
0.000489675
1.27945e-05
0.00134507
-0.00136777
0.00276292
-0.000288408
0.000288408
0.00106488
0.00216727
-0.000635781
0.000677633
0.000878671
0.00239737
0.0232053
-0.0264318
-0.00398119
0.0096654
-0.0030541
0.00525276
-9.93326e-05
0.000216462
-0.00011713
0.0207042
-0.0213456
0.000781723
-0.00181259
-0.000862521
0.00119923
0.00226572
0.00677587
-0.000461239
0.00108731
-0.000331251
0.000155742
0.000473556
0.000217378
0.000731698
3.80988e-05
0.00370828
0.00145293
-0.000275458
0.000347957
0.00111114
0.027737
-0.0281816
0.000366997
-0.000655405
-0.000135479
-0.000563623
0.00065795
-0.000367603
0.000333972
0.0019085
0.000525865
0.000504674
-0.000201662
0.000915943
0.00903668
-0.00103506
-0.000580939
0.000825171
0.00141704
0.000244746
0.00529201
-0.00234916
0.000227985
0.000265365
0.000324042
0.00481169
-4.76474e-05
-5.86216e-05
0.0248759
-0.0269067
0.000945358
0.00106117
-0.0103329
0.0140923
0.000746529
0.000740332
0.00133006
-0.000322647
0.0131682
-0.0034055
0.0047431
0.000491136
0.000853932
0.00124799
0.0284978
-0.0299626
-3.375e-05
0.00233118
-0.00151579
0.00116959
0.00794974
-0.000846851
-0.000368871
0.000611398
-0.000756299
0.00124597
0.00387567
-0.00181339
0.00135507
0.00795376
0.000442926
0.000668283
-0.000792931
-0.0011896
0.00358698
-0.000355102
0.00123377
0.00285523
-0.00131204
0.00184726
0.000279997
-0.000389905
-0.0016888
1.09893e-05
0.00112168
-0.000100626
0.000694275
-0.00183756
-0.00232995
0.00459567
0.00114158
0.00130519
-0.000261772
0.000417514
0.00296921
0.0023228
0.00300731
8.14469e-05
0.000732212
0.00065534
2.22936e-05
-0.00129683
0.00403232
0.0011901
-0.00117268
0.0108381
0.0135075
0.0200626
-0.0131897
4.14027e-05
0.000238594
-0.00311138
0.00501988
0.000453677
0.000172847
0.00660303
-2.81493e-05
0.000362121
0.00648286
0.0234611
-0.0206982
0.000189228
0.000935885
0.00102742
-0.00294218
0.00376735
0.0170648
-0.00634996
-0.00774267
0.0133649
0.010207
0.000525081
0.000316199
0.0299304
-0.031743
0.000681017
-0.000155152
0.00114158
0.00197596
-0.000864827
-0.00446441
-3.93747e-05
-0.0001736
8.73443e-05
0.0021155
0.00152651
0.000469023
0.000595858
0.00120935
0.00125702
0.00577572
-9.78599e-05
0.00180092
0.000686019
-0.000458034
0.007864
-0.0105259
0.00104184
0.00498454
-0.000231091
0.00140068
0.0275976
-0.0277331
0.000449401
0.000796573
0.00130333
0.00035837
0.00148429
-0.0125339
0.0125467
0.000215431
4.99345e-05
-0.00344
0.00528726
0.00487224
0.0162593
0.00100268
0.000634303
0.000663923
-0.00126554
0.00238722
-0.000653128
0.00109605
-0.000106912
0.00198385
-0.000842275
-0.000626115
0.000296878
-3.21333e-05
-0.00412921
0.012079
-0.00210976
0.00284197
0.000690935
0.000984443
0.000263548
-0.000889097
0.00884285
0.00100674
0.00157988
0.00158105
-0.000390946
0.000282757
0.00130839
-0.000614112
0.000367603
0.000340202
-0.00132844
0.00536076
0.000877045
0.000150377
0.00165759
0.0055333
-0.00887621
0.000227032
-3.78042e-05
0.00021235
0.000929228
-7.58709e-05
-0.000158132
-0.000354583
0.000816868
-0.000462286
-0.00165231
0.00206983
0.031193
-0.0330306
-6.74991e-06
0.00571393
0.000583333
2.80649e-05
-0.000425026
0.00168205
0.00417684
-0.00116953
0.00887621
-0.014687
-0.0055333
0.00350725
-0.00327974
0.00508067
7.18803e-05
0.00670887
0.00044356
0.000266084
0.000187594
0.000718314
-0.000994501
0.00247879
0.000240666
-0.0015375
-0.0225462
0.014687
-7.83562e-05
0.00138169
-0.000420621
-4.89988e-06
0.000425521
0.00140555
-0.00131821
-0.00050828
0.00130485
0.00505854
-0.00273574
0.00132232
0.000316018
0.00372799
-0.00220147
-0.000825514
-0.000535632
0.00200752
0.0224192
-0.0122122
0.000738776
-0.00140163
0.00240431
0.000587774
0.000358834
-0.00179329
0.00677783
0.00922952
0.0259609
-0.019478
0.00232219
0.00090735
-0.00054898
0.000486099
-0.0265274
-0.000549973
0.0028484
0.00261227
-0.00157043
-0.00285619
0.0107202
0.000362726
0.000734906
0.00144034
0.00526269
0.0288721
-0.0267566
-0.000945429
0.00120898
0.000504202
0.00356747
0.000263925
0.00145999
-0.0015669
-0.00156863
0.00314851
0.0265274
-0.0280432
-0.00274868
0.00440626
0.000687547
-0.00350725
0.00213949
-0.000201246
0.000113592
8.76543e-05
0.000293238
0.001139
0.00598666
-0.00330505
0.00213552
0.00433628
-0.0181354
0.0117855
-0.000238754
0.00172011
-0.00105618
3.81522e-06
-0.000101675
-0.000126375
0.000119625
0.000866089
0.0280432
-0.026738
0.00233199
0.000201246
-0.000254231
5.29853e-05
0.000893299
0.000113437
-0.000164179
0.031968
-0.0312771
0.000910163
-0.00558875
0.00125542
0.000814407
0.00164622
0.00108089
0.00175349
0.00063548
-0.000563599
-0.0004423
5.23947e-05
0.00690034
0.000992248
0.000410799
0.000141783
-0.00276232
0.00847625
-0.000282077
-0.000321802
0.000349867
-0.00273207
0.00345038
-0.000340202
0.000936059
-0.00203224
0.00403975
0.000125448
0.00117941
-0.00080817
0.00213049
0.026738
-0.0264218
-0.00323293
0.00397171
0.00150714
-0.000431311
0.00129264
-0.00213949
-0.00276077
0.00560917
7.13292e-05
-0.000144053
0.00159614
-0.0037603
0.0042464
0.00154038
-0.00118155
0.000149674
-0.00542941
0.0121383
8.64989e-05
0.00302261
-0.0022877
0.00130898
-0.000865423
-0.00391716
0.00427988
-0.00216832
0.00360866
5.24537e-05
-0.000151786
-0.00106261
0.00436584
-0.00223031
-0.00384478
0.00434898
0.0121699
0.00119498
0.000334602
-1.85842e-05
0.00401551
0.00154914
-8.70221e-05
-0.00348441
0.00705188
0.00111628
0.0268828
-0.0176533
-0.000275035
-0.000530652
0.00111843
0.00223795
-0.00428138
0.00496893
-5.48064e-05
0.00529078
9.58482e-05
-2.65178e-05
0.0264218
-0.0264539
0.00740481
-0.00216092
0.00449291
0.000335436
-0.0225493
0.010337
0.00160507
-0.00338849
0.00115818
0.00212476
0.00266662
-0.00185222
0.0002528
0.000290541
0.0128042
0.00502016
-0.00326667
0.00125916
-0.000965921
-0.00116653
0.00127997
4.24459e-05
-0.00430303
0.0102897
-0.00471307
0.00562323
0.000402104
-0.000566283
0.000217449
0.000110555
-0.000202177
0.000211406
0.00163167
0.000329245
0.00230472
-0.00189392
0.000666521
0.0302546
-0.0249919
0.000157872
-0.00011647
0.000188903
-0.000117574
-0.000161495
0.00374831
-0.00275606
0.000435106
7.09446e-05
0.00187884
0.00111812
-0.000347685
-0.000770433
-0.00108556
0.00273178
6.75959e-05
0.00037892
-0.0107638
-0.000387483
0.00189462
0.00349796
0.00109978
-1.88873e-05
0.00106898
-0.000927202
0.0343462
-0.0332072
-0.00146736
0.0030635
0.00417322
0.00174301
-0.002618
0.00233593
0.0010812
-0.000824773
0.0011649
0.00134491
-0.00119523
0.00481233
-0.00365415
-0.000936059
0.00119998
0.000481639
0.0264539
-0.0270039
-0.000265081
0.00144449
-0.00457241
0.00858792
0.00135298
-0.00126648
0.0021413
0.00607246
-0.00444079
0.000255863
-0.000451343
0.000172255
-0.000119801
0.000393736
-6.34311e-05
-0.00414561
0.00575067
0.00247947
0.000313894
3.59726e-05
-0.00503838
0.00615466
0.000853345
-0.00186134
0.00409928
2.8202e-05
-0.00851862
0.0128549
0.0043689
-0.00388726
0.00306911
-0.000549012
-0.00214311
0.000290893
-0.00483405
0.00695881
0.00981875
-0.000466667
0.00263157
-0.0256714
0.00801809
-0.00635847
0.000955153
-0.000981671
0.00417139
0.00190107
0.00038706
0.000536365
-0.000541265
0.000666721
0.00315498
-0.00360633
-7.18919e-05
0.000584845
0.000268678
-0.000470855
0.000517237
-0.0153343
-1.65746e-05
0.00132435
-0.00107155
0.00361967
0.000113775
-0.000297605
0.00064933
-0.000809971
0.0300013
-0.0225965
-0.000714123
-0.0063961
0.0116869
-0.0265274
0.000115619
0.000192815
-0.00751978
0.00942085
0.00141355
-0.00157505
-0.000732279
-6.30448e-05
0.000129122
-0.00482459
0.00670343
0.000916625
-0.0169688
0.01138
0.00927174
-0.00934363
-0.00584449
0.00832396
-0.0280665
0.0270039
-0.000201246
-0.00135528
0.0013364
7.86441e-05
-0.00023043
0.00175196
-7.53154e-05
-0.000739787
0.0024828
-0.00591889
0.0100921
8.34563e-05
0.00181116
0.0026921
-0.00324111
0.00266903
0.00014707
0.000155368
-0.000119396
-0.00213949
0.00389359
0.00111432
0.000171035
-9.23906e-05
0.00152794
2.79514e-05
0.00232371
-0.00166391
0.00204283
0.000988963
-0.00105239
-0.00204283
0.00233337
0.00182047
-0.00142674
-0.00119998
0.00124243
-0.000111551
-0.00018611
6.96403e-05
-0.00233337
0.00255082
-0.0117611
0.0129561
0.000117574
-8.93722e-05
-0.000914224
-0.00142107
0.00356238
-0.000666521
0.000235211
-0.00255082
0.00276222
0.00916894
-0.00990122
-0.00276222
0.00309147
0.00500946
0.000164638
-5.376e-05
-0.000110878
-0.00309147
0.00352658
0.00133007
-5.04913e-07
-7.5366e-05
-0.000174695
0.00991433
-0.000493472
-0.00352658
0.00359417
0.000214235
0.000435095
0.0014254
-0.0003442
0.000748918
0.00106758
-0.00973212
0.0102494
0.00267821
-0.010197
0.0111136
0.00259616
-0.0022091
0.00347374
-0.00316257
-0.000311172
0.00138615
-0.00168376
0.00166391
-0.00137302
0.0105603
-0.00989357
-0.000133715
0.00354101
-0.00341189
0.0277078
-0.0196897
-0.000315487
0.000711273
0.00227156
5.12336e-05
-0.00359417
0.00385004
-0.00416457
0.00960361
-0.0203674
-0.000188897
-0.00400562
0.00663719
0.000299899
7.29171e-06
0.00953945
-0.0104537
0.00116943
0.00511124
-0.00704953
0.00971856
0.00128497
-0.00050631
-0.000778661
0.0161874
-0.0144355
0.0342542
-0.0307562
-0.000361769
-0.0106933
0.0118076
0.00127443
0.00312423
-0.00297716
0.00137302
-0.0011802
8.65275e-05
-0.000205923
-9.52671e-05
0.00190643
0.0011802
-0.00106643
0.00432996
-0.00358104
0.00109378
-0.0249974
0.000182204
-0.0223322
0.00699785
0.00749624
0.00259587
-0.00385004
0.00443488
0.000363317
0.000331727
0.000735854
0.00238753
0.00106643
-0.001083
0.00102816
-0.00134365
0.00269781
0.000355786
0.000915128
0.000521622
0.00104702
0.00185967
-0.00876932
0.012389
-0.000655593
0.000420284
5.49762e-05
-0.000166527
0.0113898
0.000124639
-6.96631e-05
0.00291756
0.000232577
0.000918067
0.015694
0.0144355
-0.0146102
-0.000983856
0.00330757
8.93721e-05
-3.81385e-05
0.000317863
-0.000523787
0.0106091
-0.0103092
3.22487e-05
-0.00124243
0.00116711
0.000138368
-0.000605035
0.00316222
-0.00335112
-0.0127286
-0.00898743
-9.55829e-05
-0.023728
0.00403831
-0.0167301
0.001083
-0.00105505
0.00545786
-0.00428843
0.00151352
-0.000177121
0.00244595
-0.00310154
0.000769901
-0.000248278
0.000155389
-0.00102579
0.00257852
0.00116932
-0.0274816
0.0324911
-0.00443488
0.00576495
0.00018506
0.00150575
-0.0243993
0.0295106
0.000778351
0.00108132
-0.000148497
5.29146e-05
-0.0113473
0.0126217
-0.000235211
0.000101496
0.00582601
-0.00491089
-0.000905167
-0.00830523
0.0109011
0.00187682
0.0146102
-0.0149719
0.00136617
-0.00239196
0.0260142
-0.0219759
0.00105505
-0.00104776
0.00268478
0.00260549
-0.00173538
0.00141332
-0.00355946
0.00623767
0.000292002
-0.000815788
0.000460331
4.35857e-05
-0.000145261
0.000164638
-0.000517601
0.00290513
0.011382
-0.010464
0.00548936
-0.0053043
0.0165953
-0.016232
4.37228e-05
3.81385e-05
-5.88985e-06
-0.015694
0.0158762
0.00241424
-0.000908484
-0.0054876
0.00458243
-0.0158762
0.016232
0.00104776
-0.00081518
0.00127674
-0.000565471
-7.88572e-05
-0.0165953
0.0170156
0.00153758
0.00161489
0.00125151
-0.0020673
0.0037133
-0.00544868
0.00297793
-0.0197081
0.00349556
0.00107288
0.000578472
0.00918233
0.00220751
-0.00576495
0.00846276
-0.00114044
0.00307773
-0.0144355
0.0149719
-0.0148165
0.00202897
0.0120999
-0.0017743
-0.000721864
-0.00232031
0.0152764
-0.0230657
0.00108984
-0.000221632
0.00290641
-0.0111145
0.0122083
0.00161787
-0.00157415
-0.0131734
0.0108531
-0.0200878
0.00278997
0.00081518
-0.000484325
-0.000330856
0.00564264
-0.0183712
0.00127445
8.17622e-05
-0.000136569
-0.000101496
2.26384e-05
-0.0140654
0.000709391
0.00389699
-0.00503743
-0.00964107
0.0089192
-0.0087769
0.00935537
-0.00116711
0.000989994
0.0249974
-0.0239504
-0.00155169
-0.0105936
0.0118681
-0.0094766
0.0116841
2.24172e-05
0.00347314
-0.00847012
-0.00990109
0.00925542
-0.0110297
-0.0170156
0.0174759
0.0026835
-0.0249974
0.00173483
0.010933
-0.00905617
0.0201866
-0.0185717
-0.00206418
-3.12106e-06
-0.0174575
-0.00404245
0.00662097
0.00142451
-0.00869049
0.0102281
-0.0121292
0.0135425
-0.000106824
3.71613e-05
-0.000965047
-0.00363833
-0.0115104
0.0105454
-0.000385641
0.000142305
-0.00171005
0.00241944
0.0148165
-0.0137437
0.00150626
-0.0111118
-0.00634571
0.0185717
-0.0174819
0.00292883
0.0105062
-0.0120579
0.00586441
-0.00586753
0.00049257
0.000826985
-0.0201866
0.0222156
0.00800844
-0.00521847
-0.00388718
0.0147402
0.00081518
0.000357638
-5.39098e-05
0.000469017
-0.012588
0.00870082
-0.0171105
0.0030451
0.00551163
-0.0154127
-0.000523505
0.000664878
-0.0115989
-0.0103841
0.0118903
0.00176309
-0.00839453
-0.00701819
-0.00702154
0.00338321
-0.0208976
0.000809785
5.88986e-06
3.12715e-05
0.0121469
-0.0113199
-0.0178525
0.00142269
-0.000253368
0.00168092