/*--------------------------------*- C++ -*----------------------------------*\
  =========                 |
  \\      /  F ield         | OpenFOAM: The Open Source CFD Toolbox
   \\    /   O peration     | Website:  https://openfoam.org
    \\  /    A nd           | Version:  8
     \\/     M anipulation  |
\*---------------------------------------------------------------------------*/
FoamFile
{
    version     2.0;
    format      ascii;
    class       volVectorField;
    location    "0.75";
    object      U;
}
// * * * * * * * * * * * * * * * * * * * * * * * * * * * * * * * * * * * * * //

dimensions      [0 1 -1 0 0 0 0];

internalField   nonuniform List<vector> 
1924
(
(-0.0910742 -0.0406761 2.02075e-17)
(-0.444716 -0.136864 1.98852e-17)
(7.60887 1.50618 1.89752e-17)
(8.70087 2.53073 1.20585e-17)
(0.699171 -0.359052 2.67076e-17)
(7.65184 2.87508 7.19074e-18)
(8.1085 3.58628 1.69926e-18)
(7.13506 3.92926 -1.07665e-18)
(7.49218 4.5137 -4.5762e-18)
(7.68714 0.899135 2.79665e-17)
(6.56138 4.84013 -4.62435e-18)
(6.50593 5.25015 -4.7749e-18)
(0.177714 -0.37176 5.44972e-18)
(5.71324 5.65325 -5.88885e-18)
(0.351621 7.72926 2.23539e-18)
(0.00714768 7.48584 2.01828e-18)
(0.353899 -0.480561 7.12626e-18)
(5.49525 5.77685 -4.10275e-18)
(-0.0161701 -0.0812286 2.08992e-17)
(4.9158 6.17482 -3.19233e-18)
(0.199668 -0.230807 5.87727e-18)
(1.63367 0.125887 6.52492e-18)
(0.354115 -0.369328 7.84503e-18)
(4.66783 5.9231 1.97352e-18)
(1.28048 0.184559 3.93006e-18)
(0.120969 0.333059 1.07093e-17)
(-0.0227557 1.05136 1.10402e-17)
(2.31709 0.0450355 3.03781e-17)
(2.71428 -0.0702679 3.19568e-17)
(5.01486 -0.164678 4.41419e-18)
(0.367382 -0.48146 8.57358e-18)
(0.938933 0.371253 5.70609e-18)
(-0.0668467 0.0714149 1.87993e-17)
(0.342395 -0.526716 6.79084e-18)
(3.74808 -0.276296 5.31814e-17)
(0.369972 -0.298285 8.18726e-18)
(0.969519 0.495889 7.08381e-18)
(3.30923 -0.518973 3.78514e-17)
(4.22235 -1.32828 6.0864e-18)
(0.466747 -0.570574 7.30831e-18)
(0.360331 0.631786 8.07187e-18)
(0.222293 -0.293262 5.74851e-18)
(0.0776188 0.52979 8.8258e-18)
(0.442848 -0.483326 7.15339e-18)
(3.34844 2.04754 1.71947e-17)
(2.83608 0.0542976 2.50973e-17)
(0.0596605 0.0300409 2.07878e-17)
(8.81217 4.16643 2.68107e-17)
(0.194398 0.0214829 5.70178e-19)
(0.0933588 -0.121501 2.98731e-18)
(0.512762 -0.283672 4.3325e-18)
(0.200354 -0.298978 6.39593e-18)
(1.84167 -0.120057 6.82588e-18)
(0.765425 -0.294738 4.66902e-18)
(2.70225 -0.228696 2.18096e-17)
(7.63217 1.03342 3.2483e-17)
(-0.0321601 -0.0606525 2.11253e-17)
(4.66462 2.23463 3.41597e-17)
(3.40079 1.07084 2.98101e-17)
(0.816523 2.62637 1.64115e-18)
(0.32927 -0.37029 3.98931e-18)
(0.212762 7.01154 2.64177e-18)
(0.366937 -0.368035 3.65594e-18)
(3.48653 -0.0143552 1.43702e-18)
(1.0298 -0.214039 9.48136e-18)
(9.80492 3.95495 2.57467e-17)
(0.531942 2.29231 3.64648e-18)
(0.530011 -0.264356 6.33297e-18)
(3.38408 -0.0466692 2.73144e-17)
(0.444691 -0.292644 1.91882e-18)
(0.115238 -0.335493 1.07326e-17)
(-0.102728 6.31973 2.36901e-18)
(3.17311 -0.681588 2.67687e-18)
(6.24757 -0.367635 3.96178e-18)
(6.54019 -1.42011 5.19895e-18)
(0.840189 -0.801299 1.18765e-17)
(10.2926 3.75931 1.06604e-17)
(7.29753 -1.41688 6.39525e-18)
(9.54818 5.89648 1.63113e-17)
(0.44226 -0.308346 2.7133e-18)
(5.02863 0.575695 6.95607e-18)
(-0.224069 1.66835 8.85331e-18)
(4.91606 4.46937 2.80249e-17)
(0.263725 -0.190087 7.08432e-18)
(-0.0488991 0.02557 1.98718e-17)
(0.602574 -0.209066 6.37982e-18)
(4.1362 0.296276 3.0183e-17)
(1.14288 7.48385 1.78545e-18)
(0.104269 -0.0876681 1.97784e-18)
(0.158349 -0.164237 9.19981e-18)
(0.667569 1.99741 1.04215e-17)
(0.195417 0.992096 7.46738e-18)
(3.34791 -0.0294384 2.08098e-17)
(3.24059 -0.043047 1.27773e-17)
(0.313887 -0.265785 9.48504e-18)
(1.29746 0.00990337 1.97769e-17)
(10.1876 3.71549 7.80385e-18)
(4.99064 1.21756 5.37515e-18)
(0.687046 2.69481 5.39342e-18)
(0.452721 -0.633556 1.14439e-17)
(5.94359 1.1238 1.77145e-17)
(0.288281 -0.283593 8.52803e-18)
(0.533657 3.18593 1.16084e-17)
(0.456614 1.42147 4.02519e-18)
(2.97566 0.248473 9.50503e-18)
(7.70192 -0.781775 -2.19908e-18)
(4.87134 1.00789 1.39431e-17)
(2.30449 -0.194995 8.15333e-18)
(0.947917 1.76473 3.01577e-18)
(3.71031 0.224017 1.55382e-17)
(9.71275 4.1127 3.58014e-19)
(4.21829 0.16255 2.09952e-17)
(2.41664 -0.609707 4.39996e-17)
(4.8669 1.9032 2.01905e-17)
(9.08724 3.79021 6.78192e-18)
(0.16049 -0.129977 6.87926e-18)
(6.65987 1.64574 1.53275e-17)
(-0.939591 7.67431 1.48482e-18)
(1.20149 0.562808 7.36207e-18)
(9.86317 4.17974 2.9258e-18)
(-0.00311155 0.0601342 2.02479e-17)
(0.128178 -0.00593481 -4.05737e-21)
(0.145713 -0.185238 4.14805e-18)
(0.224103 -0.166139 7.31434e-18)
(0.179762 3.84497 4.06549e-18)
(3.05364 0.449752 6.13353e-18)
(1.45479 -0.863333 1.05174e-17)
(7.44506 -2.22545 6.58988e-18)
(4.06007 0.414103 1.58765e-17)
(0.100498 -0.0166696 -4.68056e-19)
(9.73862 4.12628 -2.93487e-18)
(5.41423 1.35437 1.32385e-17)
(0.830814 -1.0687 2.41032e-17)
(5.6631 3.10589 2.71107e-17)
(0.386092 -0.18291 7.86969e-18)
(3.62684 0.832799 7.72008e-18)
(4.98712 0.0291168 2.80508e-17)
(4.77607 0.355507 2.16698e-17)
(4.26636 6.22954 5.45493e-18)
(3.33865 -0.654201 5.04904e-17)
(8.46816 2.46041 2.96365e-17)
(0.0669988 5.01238 4.59986e-18)
(0.0734603 -0.399768 8.57601e-18)
(-0.0129697 0.170938 1.99872e-17)
(6.24684 2.36585 1.15307e-17)
(0.0894515 -0.0171943 -5.68601e-19)
(2.26964 -0.229717 7.73125e-18)
(0.415483 -0.624934 1.24869e-17)
(0.824844 1.47803 3.41207e-18)
(0.964883 0.108913 8.29318e-18)
(1.99797 3.02628 1.61119e-17)
(0.10995 -0.000327402 4.23786e-19)
(1.18368 -0.703376 9.8124e-18)
(5.22251 2.00495 9.53661e-18)
(6.66103 2.85348 1.00188e-17)
(2.95703 0.357106 5.25246e-18)
(0.124637 0.015873 -5.48086e-19)
(5.86063 0.350434 2.7105e-17)
(8.98536 4.49252 -5.70046e-18)
(2.65166 2.60573 -3.62142e-18)
(5.36486 1.54003 1.07739e-17)
(1.51876 -1.27727 1.67712e-17)
(5.64865 2.43083 9.30989e-18)
(0.132041 -0.00583474 8.53039e-19)
(1.01919 1.18264 9.11313e-18)
(3.56428 0.977834 6.46697e-18)
(3.40641 1.05597 6.06162e-18)
(0.129588 0.0211783 -5.66882e-19)
(9.96543 3.52452 3.99108e-18)
(4.20048 1.00156 9.76503e-18)
(-0.112097 0.0432843 1.93187e-17)
(6.03162 3.35471 4.35411e-18)
(7.74704 -1.1756 -3.25899e-20)
(0.652867 1.26147 5.21241e-18)
(8.76503 2.1381 2.64556e-17)
(1.74833 -0.49102 7.46594e-18)
(4.7713 0.401957 9.2486e-18)
(-0.163047 -0.336429 8.90036e-18)
(0.355284 -0.251848 8.28843e-18)
(5.17917 2.9112 5.09752e-18)
(2.59482 -0.384583 1.12323e-17)
(-1.35921 7.94568 3.23215e-18)
(8.25664 1.46788 5.26406e-18)
(3.24507 1.00194 6.53241e-18)
(0.224476 0.02406 -3.13293e-19)
(-0.743437 0.386782 1.48649e-17)
(1.45579 -0.700098 9.13559e-18)
(2.6282 -0.328847 8.13543e-18)
(9.72918 3.7612 -1.52357e-18)
(6.64361 1.77842 5.49065e-18)
(1.89713 -0.510878 8.39706e-18)
(6.21339 3.80403 -2.44262e-18)
(8.31222 4.00486 -6.50802e-18)
(5.41265 3.31173 4.12441e-18)
(3.41906 1.64302 4.27782e-18)
(0.100418 -0.00419187 7.36559e-19)
(2.42193 -0.216806 7.6697e-18)
(1.90769 -0.530884 7.127e-18)
(2.201 -0.429083 1.37344e-17)
(1.91042 -0.566897 7.49894e-18)
(-0.0138006 0.168834 1.9447e-17)
(0.388364 0.206139 1.75974e-17)
(3.96588 1.37831 5.8317e-18)
(5.5474 4.1935 -2.25569e-18)
(0.800592 0.00109566 2.25615e-17)
(2.63324 -0.710051 9.90093e-18)
(4.77913 3.70292 1.21528e-18)
(1.28588 -0.463643 9.33129e-18)
(0.774374 -0.528905 1.18391e-17)
(0.47853 -0.422923 1.18291e-17)
(0.133489 -0.0085115 1.11349e-18)
(4.46624 1.14597 9.46147e-18)
(3.16696 6.94235 6.15468e-18)
(3.17942 1.59658 3.02228e-18)
(2.52492 -0.610967 9.07205e-18)
(8.09252 -1.07136 6.01646e-19)
(0.753775 0.981855 4.89552e-18)
(1.9331 -0.530464 8.69267e-18)
(4.91862 4.09722 -1.23648e-18)
(7.39754 -3.00687 6.88597e-18)
(2.48925 -0.116314 8.56684e-18)
(5.48887 3.86497 1.30523e-17)
(3.85589 1.54876 5.90525e-18)
(2.65094 7.36388 8.35881e-18)
(5.72512 4.68256 -2.83608e-18)
(2.25019 -0.277951 1.01185e-17)
(7.68119 4.46273 -4.88314e-18)
(6.82978 -0.549168 4.25619e-18)
(3.12933 2.25459 1.02287e-18)
(2.10406 -0.659916 8.58643e-18)
(0.724698 -0.152596 2.87924e-17)
(0.322074 2.24106 8.28174e-18)
(2.35708 -0.648413 1.34475e-17)
(0.0895871 -0.413864 1.16256e-17)
(2.23749 0.1646 1.08307e-17)
(-0.0249656 0.614538 -1.4558e-18)
(3.11256 6.1584 7.99657e-18)
(4.21222 4.46175 -7.24779e-19)
(4.08685 1.98228 5.56982e-18)
(0.100924 -0.00704756 7.10916e-19)
(-2.53924 7.9378 2.85067e-18)
(2.65218 -0.832887 9.5761e-18)
(3.52447 5.41071 9.62336e-18)
(1.49166 -0.390084 8.92895e-18)
(1.24027 0.577091 2.44275e-18)
(0.610404 -0.38555 1.09321e-17)
(4.96801 5.03483 -1.34602e-18)
(9.72297 2.79661 1.45054e-17)
(8.428 0.494733 5.67189e-18)
(7.25287 -0.958441 6.52678e-18)
(0.654135 -0.0025955 9.74349e-18)
(0.131814 -0.0109525 7.93013e-19)
(2.80389 2.19098 2.2423e-18)
(4.39396 1.58844 6.54826e-18)
(9.22912 2.83025 -4.26065e-18)
(1.74161 7.46661 8.58259e-18)
(0.30873 0.118598 1.10046e-17)
(2.59444 -0.592705 8.65944e-18)
(2.45393 -0.16245 1.2043e-17)
(4.27885 4.86299 -6.70421e-19)
(2.88573 0.411144 8.59268e-18)
(3.80157 2.18227 3.66344e-18)
(0.659579 0.809458 8.26645e-18)
(8.58716 0.333829 2.8712e-18)
(0.726703 0.45438 4.91017e-18)
(5.69121 -3.02328 7.60635e-18)
(0.25519 -0.294607 4.90218e-18)
(7.9391 -1.99001 6.69151e-18)
(2.7111 -0.696037 1.73928e-17)
(0.133135 0.0206698 1.83056e-17)
(2.07343 -0.578777 7.80527e-18)
(3.0354 1.6664 2.24844e-17)
(0.83949 0.186021 2.27788e-17)
(2.16053 -0.34179 9.18422e-18)
(0.328181 2.20062 7.90322e-18)
(4.87165 0.313854 1.7618e-17)
(4.98865 5.47987 -4.41761e-18)
(1.84439 0.424115 1.10439e-17)
(4.75662 1.93259 8.14156e-18)
(2.30182 -0.751773 1.17643e-17)
(-0.00842622 0.171079 1.87068e-17)
(0.0962413 -0.0135246 4.00683e-19)
(0.398161 1.91156 6.22691e-18)
(2.57575 2.89858 1.41657e-19)
(0.00609815 0.0219671 2.0856e-17)
(6.98561 1.08024 3.04578e-18)
(6.69603 3.5848 -4.96955e-18)
(0.117271 -0.0292047 -1.36852e-19)
(3.5496 5.16647 -3.43454e-19)
(2.60538 -0.783998 8.37783e-18)
(3.84753 2.66451 2.48505e-18)
(4.11623 -2.07075 7.01844e-18)
(1.72762 0.600794 9.67201e-18)
(2.14002 5.91 1.12393e-17)
(0.0947869 -0.144627 4.70455e-18)
(1.16152 0.532852 1.38123e-17)
(1.33321 7.71339 7.20145e-18)
(1.40348 -0.347793 8.96603e-18)
(8.30131 -2.97797 7.70362e-18)
(1.58951 6.58655 8.44719e-18)
(0.0790528 -0.0213049 -6.0254e-19)
(4.48579 2.25848 5.79984e-18)
(3.49628 4.25099 1.43509e-17)
(0.699289 0.875647 6.73711e-18)
(4.23736 5.79643 -3.16176e-18)
(1.13162 0.612373 9.26148e-18)
(0.26849 -0.313878 4.58806e-18)
(3.94462 3.54636 1.55408e-17)
(2.49839 -0.386709 1.04594e-17)
(6.64881 5.51119 1.9673e-17)
(0.915869 -0.320284 1.09692e-17)
(0.568141 -0.0915517 1.02963e-17)
(2.18495 2.72269 1.98366e-18)
(1.60623 0.309091 7.75615e-18)
(8.29208 3.09472 -6.3009e-18)
(0.247938 -0.322741 4.79517e-18)
(2.77436 0.230927 9.46123e-18)
(3.55904 5.6312 -1.7051e-18)
(3.44541 2.8182 1.82088e-18)
(2.90827 0.894865 4.87142e-18)
(5.09832 -2.99631 1.73908e-17)
(2.18058 -0.53664 8.85393e-18)
(4.67509 2.72189 5.16657e-18)
(2.16161 0.600488 2.5448e-17)
(0.313871 1.52164 1.18315e-17)
(5.28513 -0.72967 9.9213e-18)
(2.49127 -0.73477 8.9855e-18)
(1.56213 0.283582 8.10354e-18)
(9.38553 2.82033 1.18695e-17)
(6.14297 3.97533 -3.02865e-18)
(2.46228 -0.779537 1.01019e-17)
(0.424598 2.09845 2.0974e-20)
(1.73873 0.604407 9.94029e-18)
(4.30273 6.16922 -3.37863e-18)
(7.09207 -4.20366 8.87202e-18)
(1.36374 1.1641 9.19221e-18)
(0.605065 2.29242 5.79134e-18)
(3.35911 3.31524 7.71671e-19)
(1.79248 3.53644 7.67585e-18)
(4.23999 2.98211 3.04238e-18)
(5.38673 -1.0361 1.10373e-17)
(3.92957 1.55438 2.71815e-17)
(1.14674 0.46037 6.67861e-18)
(1.56194 -0.349631 9.19889e-18)
(0.437191 7.69863 7.30619e-18)
(-0.76503 6.83599 2.98162e-18)
(0.24743 0.145672 2.73043e-17)
(0.169398 3.43309 4.45003e-18)
(0.545402 -0.145076 9.72123e-18)
(0.565851 0.93816 9.22057e-18)
(0.432691 0.559472 7.38487e-18)
(0.625562 -0.199848 6.35906e-18)
(0.185083 -0.120935 1.24083e-17)
(1.96605 4.7345 1.84579e-17)
(0.680366 -0.266887 9.30867e-18)
(6.85123 -1.99076 1.64601e-17)
(0.100032 0.0547448 -1.48519e-18)
(2.82476 5.90663 -1.40339e-18)
(2.37875 -0.133919 1.04368e-17)
(0.289443 -0.126456 5.23482e-19)
(1.2285 1.34195 1.2068e-17)
(0.496807 6.27376 1.15633e-17)
(2.59187 4.09064 2.11942e-17)
(0.273656 2.10459 7.7437e-18)
(0.486737 0.596025 5.44866e-18)
(4.25734 3.46185 1.28971e-18)
(1.20442 0.610688 7.95186e-18)
(2.09638 -0.465964 9.47214e-18)
(1.66462 2.81491 1.04839e-17)
(2.87447 3.41703 5.84372e-19)
(3.99359 2.70945 2.51318e-17)
(2.67973 0.615854 5.60969e-18)
(1.31549 0.545825 6.00277e-18)
(-3.28498 7.09272 7.51203e-18)
(0.443873 0.210318 9.5258e-18)
(0.179083 -0.476327 1.7707e-18)
(0.281006 6.77688 8.52022e-18)
(0.0870725 7.7531 5.25814e-18)
(0.573066 0.712263 4.60489e-18)
(-0.0915514 3.94268 3.35159e-18)
(-0.673603 5.98064 2.80439e-18)
(7.24912 -2.65156 1.4647e-17)
(2.27918 -0.568872 8.57559e-18)
(2.60963 1.33783 5.98451e-18)
(2.38346 -0.633168 9.02795e-18)
(4.33593 2.14842 2.51958e-17)
(6.07531 -4.25294 5.5328e-18)
(0.231379 2.11524 5.64195e-18)
(0.415295 0.0739903 1.02817e-17)
(3.72978 3.68149 5.51433e-19)
(1.17967 1.14437 -1.9265e-18)
(1.58146 1.28682 1.13303e-17)
(2.05593 -0.35282 1.02339e-17)
(0.208721 2.16738 3.73992e-18)
(2.60893 4.04164 -2.36353e-20)
(0.348607 -0.0832192 1.94598e-17)
(0.424844 0.12173 1.14786e-17)
(0.614139 0.691308 5.52176e-18)
(5.39141 2.80366 8.9655e-19)
(-1.12544 7.23476 1.51982e-18)
(0.0829316 -0.0142821 -2.50528e-19)
(8.37887 -4.36906 1.01044e-17)
(1.39961 -0.405573 8.45161e-18)
(2.51275 -0.644986 1.32341e-17)
(0.103644 0.015424 -4.35144e-19)
(0.563503 2.10158 6.11842e-18)
(4.98228 0.642522 2.50232e-17)
(0.0646872 2.46121 5.81652e-18)
(1.90143 0.245643 8.78799e-18)
(0.486655 0.284013 8.13004e-18)
(0.925413 2.0049 1.44372e-17)
(1.66746 1.66887 7.84394e-18)
(2.76656 6.39741 -1.25082e-18)
(3.66986 4.15962 -2.01559e-19)
(1.21902 3.55767 6.69653e-18)
(0.711925 0.559335 7.20578e-18)
(4.71003 -0.860495 1.65402e-17)
(0.21625 4.98991 2.12918e-17)
(1.22013 0.00708475 8.43721e-18)
(9.31943 3.63667 3.21178e-18)
(0.816286 4.43897 2.4472e-17)
(2.12442 -0.411586 9.90258e-18)
(5.15059 -0.0901892 2.43753e-17)
(0.925171 -0.277687 9.57436e-18)
(0.370144 0.876888 5.59071e-18)
(2.18886 3.25656 3.14699e-17)
(7.45422 1.75141 -6.30222e-18)
(2.95872 -2.32966 3.14848e-19)
(1.13657 1.14977 1.24225e-17)
(0.551561 0.394728 9.12601e-18)
(0.326559 2.06298 7.28189e-18)
(4.73493 -1.71484 1.45192e-17)
(0.753406 0.861051 8.02148e-18)
(1.34101 1.28724 1.07011e-17)
(2.05531 4.16888 1.19398e-18)
(0.44854 0.0979865 9.35077e-18)
(2.9828 2.53687 3.29775e-17)
(0.332756 -0.305635 2.52652e-18)
(2.98507 4.44698 2.55602e-20)
(0.246814 0.778513 5.01007e-18)
(2.44146 -0.491645 8.80659e-18)
(0.340845 0.0109223 9.5676e-18)
(2.51451 0.817609 3.32359e-18)
(-0.130114 0.177517 2.23261e-18)
(-0.16472 3.11823 4.62625e-18)
(1.60528 1.16217 -3.83763e-18)
(0.704513 2.05325 1.05552e-17)
(8.41089 -5.71765 1.90356e-17)
(1.45002 0.21256 1.07851e-17)
(0.133092 2.15578 6.22848e-18)
(-0.957451 7.91756 4.74572e-18)
(1.39669 1.57114 1.41361e-17)
(2.18556 1.44026 4.71337e-18)
(4.93708 3.39451 5.94543e-20)
(0.413984 0.116693 9.30669e-18)
(1.40645 0.631921 1.17618e-17)
(4.02354 1.05842 3.5899e-17)
(-0.494031 6.30886 1.11665e-17)
(0.876213 0.81187 1.12546e-17)
(-1.30239 6.29059 7.00621e-19)
(4.6708 -2.60051 1.82533e-17)
(0.510474 0.871161 7.94317e-19)
(0.296158 -0.395354 4.3218e-18)
(0.741785 0.348315 8.86117e-18)
(1.59386 -0.420222 8.06418e-18)
(-0.112704 2.17425 5.70555e-18)
(-0.123555 2.17768 7.45862e-18)
(1.46836 2.26915 8.83604e-18)
(2.91606 4.96104 -3.89465e-20)
(6.71968 5.1528 2.34744e-17)
(0.732462 0.823566 8.37795e-18)
(1.47106 1.81737 9.03858e-18)
(4.59006 -4.20526 1.96372e-17)
(4.42792 0.199031 3.42967e-17)
(2.01566 -0.375277 1.33053e-17)
(4.754 -3.14522 2.92574e-17)
(2.32589 -1.2237 1.6806e-18)
(2.07909 6.58837 -3.4383e-19)
(-0.413364 3.40922 3.7374e-18)
(-1.97039 7.16273 1.54446e-19)
(0.647866 2.41113 1.07753e-17)
(1.81763 4.90322 5.1742e-19)
(0.605448 1.71102 5.89065e-18)
(-0.407683 2.33577 9.12533e-18)
(0.868649 1.16269 4.89934e-18)
(0.638706 1.00457 6.73584e-18)
(0.194016 0.172444 9.67446e-18)
(-4.61382 6.67021 7.18101e-18)
(0.494663 0.579683 6.81961e-18)
(6.63679 2.388 -4.41372e-18)
(0.30983 -0.323209 3.18842e-18)
(0.402815 0.3826 1.04628e-17)
(1.31793 1.59112 1.1416e-17)
(8.83286 3.81603 8.37247e-19)
(-0.0363259 3.5169 3.6199e-17)
(4.80288 -1.30786 3.23707e-17)
(-1.09509 5.14499 3.40347e-18)
(0.2269 1.86071 7.27918e-18)
(0.172848 0.152742 9.32226e-18)
(1.96298 0.247923 2.1919e-17)
(1.02075 2.72549 3.86822e-17)
(-0.905151 6.82615 7.24474e-18)
(2.33563 -0.364504 8.76694e-18)
(0.305424 0.685033 5.63838e-18)
(0.700539 -0.490852 9.12961e-18)
(0.605318 0.402045 4.9276e-18)
(-0.645332 4.38934 2.63444e-17)
(0.43919 0.309185 8.58727e-18)
(1.42652 1.75515 1.55687e-17)
(2.39493 1.02324 4.40509e-17)
(6.43582 -4.72425 2.56408e-17)
(4.67591 -1.95159 2.83981e-17)
(0.0527341 1.89414 7.42433e-18)
(2.18597 0.765141 9.24994e-18)
(-0.122001 2.03448 5.22856e-18)
(-0.253577 2.10649 6.23411e-18)
(0.348 0.68312 3.33399e-18)
(0.730669 1.38625 1.00003e-17)
(2.27035 5.20124 6.76421e-19)
(-1.98089 6.66282 2.245e-19)
(0.640665 0.985615 9.27812e-18)
(-1.06477 4.83661 2.18673e-17)
(4.12431 -3.70294 1.48706e-17)
(3.11586 -0.133384 4.37955e-17)
(1.94893 1.15203 9.26288e-18)
(0.8084 1.80635 1.02373e-17)
(5.69131 -5.37953 1.26075e-17)
(0.560423 -0.270056 -1.11834e-18)
(0.72113 0.86551 1.00664e-17)
(1.27091 2.9141 3.46672e-18)
(0.393177 0.550237 9.08224e-18)
(1.87955 6.93403 1.18401e-18)
(1.5174 1.8715 1.09339e-17)
(0.350191 -0.0799238 7.1423e-18)
(1.36939 -0.380294 8.42334e-18)
(-0.67426 2.09313 9.25972e-18)
(1.27313 4.95883 1.72751e-18)
(2.01974 -0.340358 1.22789e-17)
(0.34426 -0.491065 6.07246e-18)
(0.696579 0.671928 7.99956e-18)
(1.00685 1.22823 1.65808e-18)
(2.55261 0.839273 2.64201e-17)
(0.529963 -0.171098 1.70738e-18)
(7.34241 -5.7639 9.27279e-18)
(3.89542 -1.9504 4.26766e-17)
(0.30166 0.412342 8.86573e-18)
(2.83083 -2.95018 1.67137e-18)
(2.33288 0.153733 8.10556e-18)
(-0.712735 2.76901 4.81118e-18)
(4.67161 2.58877 3.06491e-18)
(0.184154 0.333211 8.98984e-18)
(0.504142 1.44824 6.29804e-18)
(-2.75377 7.49061 -1.85413e-18)
(1.15164 1.45135 1.54905e-17)
(0.0857529 0.349395 9.42874e-18)
(0.544854 0.0285132 8.01525e-18)
(0.373602 -0.356127 9.51559e-18)
(0.630629 -0.0178909 3.92905e-18)
(0.103712 0.093996 1.65351e-19)
(2.16776 -1.73532 -2.39419e-18)
(0.57442 0.45553 7.79624e-18)
(0.405405 0.937698 8.5113e-18)
(1.98905 -0.737793 1.09971e-17)
(0.312386 1.47121 6.41476e-18)
(2.26311 -0.218703 9.02149e-18)
(1.385 -0.121774 8.01979e-18)
(3.68748 -4.26328 8.9158e-18)
(8.65026 4.38265 -4.53987e-18)
(3.72824 -3.84909 8.12081e-19)
(1.39177 1.58288 9.47598e-18)
(4.04227 -2.98964 4.04753e-17)
(0.583648 0.59463 6.80612e-18)
(0.250838 0.479514 9.56808e-18)
(0.101997 1.66194 6.11496e-18)
(7.90935 -7.49652 2.97808e-17)
(-0.354205 1.87648 5.49564e-18)
(0.283148 -0.140177 5.87916e-18)
(0.890691 -0.471596 8.37754e-18)
(0.116183 0.736755 5.02934e-17)
(0.968086 0.230378 8.10123e-18)
(0.626913 0.491738 6.56558e-18)
(-1.74466 5.29796 1.71246e-18)
(2.17583 5.60998 -1.01773e-18)
(-0.00937196 1.71161 4.53658e-18)
(1.32135 -0.134239 1.39863e-17)
(0.588829 -0.172633 1.2246e-18)
(-1.09205 2.8205 4.0887e-17)
(0.560584 -0.138814 9.35326e-18)
(4.02435 -4.69891 3.43011e-17)
(3.81911 0.795518 2.24956e-17)
(0.828565 0.929125 1.01014e-17)
(0.846538 1.24027 1.28503e-17)
(-0.0236906 -0.141918 1.73917e-17)
(1.03211 0.178169 2.37862e-17)
(0.623675 -0.0732146 -5.09367e-20)
(1.00947 -0.0546375 4.98345e-17)
(-0.636044 1.84849 5.72129e-18)
(7.40694 0.597436 -5.3737e-18)
(-1.04931 2.18033 9.11392e-18)
(0.169444 0.473675 9.51806e-18)
(-0.162618 0.0133953 -1.8391e-19)
(-1.34555 3.16206 3.63637e-17)
(1.28134 2.08406 -9.23011e-19)
(1.84465 -0.429528 5.86479e-18)
(1.58512 1.70669 1.14405e-17)
(1.25952 7.09518 1.18414e-18)
(0.218824 2.4654 1.02055e-17)
(3.49268 -5.91971 2.79591e-17)
(1.74439 -0.104423 1.36946e-17)
(0.53756 -0.0982872 1.02835e-17)
(0.761884 0.642341 9.27952e-18)
(-2.23348 6.74555 8.13154e-18)
(0.292543 -0.0304652 6.36743e-18)
(6.04516 1.58386 -4.33104e-19)
(0.940819 0.892871 3.53022e-18)
(-1.14371 2.89444 4.9932e-18)
(1.83336 0.749026 9.17424e-18)
(1.69998 -0.451577 8.86486e-18)
(0.706163 -0.365065 9.08613e-18)
(2.88966 0.841873 1.3432e-17)
(2.07674 -2.67449 5.13766e-17)
(3.86713 -5.77796 2.71422e-17)
(8.11124 4.66409 -5.29231e-18)
(0.668343 0.192598 9.14697e-18)
(1.12415 5.80435 4.28875e-19)
(5.14897 -5.38781 1.89635e-17)
(0.494936 -0.414321 7.58845e-18)
(-1.63886 4.28867 8.13211e-18)
(0.369011 2.92118 1.15234e-17)
(0.420537 0.143059 7.83259e-18)
(-2.67183 6.40263 -2.09316e-19)
(0.21771 0.304915 7.26494e-18)
(6.86237 -0.029172 -6.46265e-19)
(0.395874 0.0365645 1.05618e-17)
(1.39832 1.51732 1.20725e-17)
(0.355762 -0.196951 -8.47369e-19)
(0.134963 0.313694 8.50534e-18)
(-0.0823598 0.206633 4.87581e-19)
(0.505955 0.459927 8.191e-18)
(2.6641 -3.57479 4.59236e-17)
(0.517617 0.999704 6.15499e-18)
(0.316395 1.20417 5.0323e-18)
(1.59081 1.51458 6.9634e-18)
(0.167817 0.525889 9.61266e-18)
(0.541223 0.258164 3.41707e-18)
(-2.14186 4.25974 2.19763e-17)
(0.765025 0.180464 8.96542e-18)
(-5.95963 5.03501 7.15473e-18)
(0.59168 0.476269 7.26643e-18)
(2.10646 -0.18955 8.97008e-18)
(0.388791 1.22895 7.8658e-18)
(0.215397 1.27985 4.89963e-18)
(6.15674 0.168479 3.35068e-17)
(1.67473 1.13534 1.00066e-17)
(0.233177 -0.139211 3.29438e-18)
(-0.0370817 1.43831 4.32414e-18)
(-0.0541222 1.15141 9.78283e-18)
(3.70993 -6.30865 3.08324e-17)
(0.562277 0.746475 1.00541e-17)
(0.512401 0.148248 8.34694e-18)
(1.47541 0.262791 1.05577e-17)
(0.683075 -0.219698 1.41099e-18)
(6.53865 -6.71588 2.63377e-17)
(2.82895 -5.99361 4.27608e-17)
(-0.270072 1.42714 4.46074e-18)
(1.72054 -0.727394 2.22595e-18)
(0.621117 0.15541 1.00939e-17)
(-2.61005 5.78612 8.17201e-19)
(0.916454 1.22623 1.16413e-17)
(1.71946 1.5737 1.08756e-17)
(1.34475 0.845679 5.00293e-18)
(2.8383 -7.39061 1.45254e-17)
(0.330329 -0.364324 2.86582e-18)
(5.40268 1.76953 1.84585e-18)
(-3.09046 5.08962 1.50602e-17)
(3.15002 -6.66082 3.73716e-17)
(1.61198 5.83285 -1.53571e-18)
(-3.70071 7.13063 -2.81674e-18)
(0.808292 -0.137988 2.4931e-19)
(0.211108 0.167709 5.16372e-18)
(-1.00389 0.0869227 5.22462e-17)
(-2.05742 0.618057 4.8801e-17)
(-1.28102 2.38927 4.76777e-18)
(-1.0542 1.88849 6.8167e-18)
(0.65618 0.0484336 1.0294e-17)
(0.946242 5.35214 -3.19107e-18)
(-0.672048 1.51061 3.46561e-18)
(0.0641656 -0.128048 -1.48e-20)
(-0.252039 -2.72954 5.39839e-17)
(0.688991 -0.26213 1.77253e-18)
(4.36313 0.701847 1.69592e-17)
(1.11032 2.47436 1.43038e-18)
(7.60547 4.80034 -5.94459e-18)
(0.314491 0.271938 8.65395e-18)
(0.237731 1.30963 8.47863e-18)
(-2.21926 2.38589 3.49004e-17)
(0.337222 0.155879 6.01901e-18)
(5.42013 -8.44317 2.08766e-17)
(1.6695 1.2082 5.49927e-18)
(0.916664 0.217245 9.56413e-18)
(2.81797 -8.82907 2.52037e-17)
(0.0535248 0.515072 1.06771e-17)
(0.558475 0.25598 8.04915e-18)
(0.614945 -0.538021 8.15942e-18)
(0.957939 -0.073144 8.05623e-18)
(0.630698 0.298718 7.69995e-18)
(0.462612 0.751196 4.66928e-18)
(0.324406 0.379973 9.35824e-18)
(0.69425 -3.89241 5.29454e-17)
(1.46411 1.38235 1.02031e-17)
(0.735535 1.26551 8.30794e-18)
(0.831151 -0.236265 7.89956e-19)
(0.346672 0.846482 3.68791e-18)
(0.0915156 -0.0925974 -1.98179e-19)
(0.468715 0.284652 9.63312e-18)
(0.381269 2.99887 9.60357e-18)
(0.176145 1.05548 3.58032e-18)
(-0.22459 1.18107 1.12742e-17)
(-2.97896 2.67278 2.62029e-17)
(0.0585596 0.0831757 2.07734e-17)
(6.84684 -9.6319 2.50395e-17)
(-2.14938 4.38001 1.04168e-17)
(2.15351 -7.66456 1.57029e-17)
(0.1408 0.138073 2.57253e-18)
(-3.65031 6.44821 -2.11362e-18)
(0.0686356 -0.254854 5.17455e-18)
(-0.102485 -0.355576 5.41674e-19)
(0.0970946 -0.143911 1.39478e-18)
(1.49352 -0.421665 9.3554e-18)
(1.40689 -6.66461 4.52651e-17)
(-0.00386342 1.10485 3.26125e-18)
(0.481785 0.00129543 9.31434e-18)
(0.411799 0.0505753 7.10424e-18)
(1.15346 0.481162 8.5261e-18)
(-1.24933 1.93091 5.92312e-18)
(0.594142 0.121562 9.94487e-18)
(-0.853417 1.48817 3.37556e-18)
(0.725828 0.414654 7.42967e-18)
(-1.41084 2.44867 5.03112e-18)
(-0.53181 1.00295 9.51888e-18)
(0.855918 -0.115218 3.14055e-18)
(-0.357196 1.15144 2.62735e-18)
(2.61166 -9.44811 1.52719e-17)
(-0.516007 0.0654995 -9.54224e-19)
(7.00137 5.21627 -5.46307e-18)
(-0.165993 -0.301388 3.96711e-18)
(1.79151 1.54375 8.05278e-18)
(0.0918029 0.234163 3.45829e-18)
(1.24629 1.26849 1.11243e-17)
(1.71884 -7.51831 4.29362e-17)
(0.627668 0.0110572 1.04219e-17)
(0.405836 0.19386 2.01716e-18)
(1.43825 6.22622 1.79764e-18)
(0.79274 0.0261081 -4.96435e-19)
(1.26395 0.43002 1.53518e-17)
(1.46732 1.0153 1.02768e-17)
(1.68351 -2.88719 4.74869e-18)
(0.531462 -0.125496 6.5465e-19)
(0.0878551 -0.0143941 -5.39976e-21)
(-1.87095 3.41612 8.52786e-18)
(3.06594 -4.99742 1.47153e-20)
(-0.558033 1.14338 1.95951e-18)
(-6.31928 4.17903 6.18942e-18)
(1.74375 -9.77259 2.99425e-17)
(0.783553 0.170503 9.99249e-18)
(0.338162 0.101492 7.37616e-18)
(0.484248 0.216567 8.63599e-18)
(1.87753 1.54251 4.74585e-18)
(0.772823 -0.287516 3.06866e-18)
(0.670862 0.171379 7.08758e-18)
(-3.17552 5.48447 1.02596e-18)
(0.622645 0.194983 7.40235e-18)
(-0.0515002 0.0839111 3.67223e-18)
(0.27261 0.662063 2.57298e-18)
(0.761449 -0.427322 9.2355e-18)
(-2.15534 -2.68266 4.87439e-17)
(1.63827 1.41801 6.9719e-18)
(0.444868 0.12943 9.15353e-18)
(0.36196 0.0467462 2.56083e-18)
(0.437642 0.48172 3.23186e-18)
(0.365241 0.162395 1.06075e-17)
(1.76564 -9.51466 6.11868e-18)
(0.695911 6.05472 -1.56991e-18)
(1.93874 -0.63093 8.88014e-18)
(3.88071 6.79249 3.93005e-18)
(4.84968 -6.94938 1.67928e-17)
(-4.91018 6.4253 1.37148e-18)
(0.746502 0.205156 5.7965e-18)
(-3.36141 0.240789 3.55662e-17)
(1.84759 0.58185 2.00689e-17)
(0.449025 -0.0118482 8.5768e-18)
(-0.0417697 1.17099 1.71497e-17)
(-2.83974 -0.199248 4.35994e-17)
(0.132346 0.75301 2.07864e-18)
(1.32132 1.06332 8.65762e-18)
(1.91809 -10.6351 2.39207e-17)
(-1.50032 -3.83383 5.02654e-17)
(0.660761 -0.321944 2.76612e-18)
(0.731391 0.265016 6.09462e-18)
(0.567951 0.941818 8.08021e-18)
(0.324246 -0.381823 3.4322e-18)
(1.66722 -0.392823 9.86589e-18)
(0.429186 -0.00472206 9.33593e-18)
(1.27621 -1.78307 2.15596e-19)
(1.26487 -10.9342 -5.9659e-18)
(-4.84969 4.45731 1.19967e-17)
(1.22001 -0.182218 4.24345e-18)
(-3.00848 4.83278 5.42981e-18)
(-0.12171 0.881215 1.65658e-18)
(1.80999 1.63897 4.90209e-18)
(4.84 -8.01996 2.87352e-17)
(-0.0137375 -6.892 4.39304e-17)
(0.267557 0.319762 1.34793e-17)
(-0.560209 -0.0320872 -7.5317e-19)
(0.946504 0.939279 7.55201e-18)
(0.098971 0.254609 4.40836e-18)
(-1.46458 2.18812 4.53039e-18)
(0.866374 -0.372413 1.55123e-18)
(0.503009 0.0559587 9.25907e-18)
(1.82818 0.767755 9.35745e-18)
(-0.437112 0.959363 8.83791e-18)
(1.25697 1.37689 4.8675e-18)
(-5.16368 2.33294 1.98021e-17)
(0.843887 -0.407427 1.94911e-18)
(-0.832378 1.19826 1.48504e-18)
(0.507607 -8.1131 4.17776e-17)
(1.69697 1.76467 5.73766e-18)
(-1.15302 1.59782 3.08863e-18)
(-0.320024 0.898419 8.06398e-19)
(0.215734 0.139189 7.15341e-18)
(-4.25474 5.91907 -2.49322e-18)
(1.58812 -12.5618 2.71396e-18)
(1.27444 1.0873 1.02935e-17)
(0.699914 0.197649 5.48369e-18)
(0.843394 0.681376 1.04922e-17)
(0.633761 0.172655 6.19234e-18)
(2.39333 -10.1317 1.49395e-17)
(-1.46251 1.90388 2.89533e-18)
(0.99232 -10.2491 3.53187e-17)
(0.0316724 0.215498 -5.59741e-19)
(6.26521 4.8632 -2.33033e-18)
(-0.395479 -0.166298 -1.44469e-18)
(0.740928 0.166352 5.19133e-18)
(0.406966 0.100196 8.44333e-18)
(0.115092 0.0592037 -9.31587e-19)
(-0.343426 1.00552 1.53598e-17)
(0.733917 0.167213 4.3892e-18)
(1.13803 1.44126 1.00872e-17)
(-2.12827 3.34156 1.02432e-17)
(0.428581 0.921706 1.21778e-17)
(0.952197 6.37442 2.56147e-18)
(-0.589102 0.906811 2.74659e-19)
(0.224554 0.192118 2.17933e-19)
(0.409258 -11.3533 2.99864e-18)
(-4.02355 5.35353 -2.21706e-19)
(0.330599 0.34118 2.04164e-18)
(-0.962128 1.01584 4.38252e-18)
(1.53242 1.42085 9.45246e-18)
(0.841225 -0.442161 1.14717e-18)
(3.68612 -12.0812 3.08294e-17)
(-1.27847 1.68187 2.07271e-18)
(-6.1833 2.75657 1.22263e-17)
(0.22052 0.417921 1.92964e-18)
(2.23067 -4.16535 4.51883e-18)
(0.0356244 0.760894 1.1104e-17)
(0.0363178 0.572645 8.38372e-19)
(0.835148 -0.472624 9.37541e-19)
(0.333108 0.0608848 8.72001e-18)
(0.159785 0.232162 1.99742e-18)
(0.492042 -0.0637909 8.76844e-18)
(1.04598 -11.2448 2.73584e-17)
(0.83462 0.739127 6.86929e-18)
(0.443676 0.0780133 1.14689e-17)
(0.818305 5.00498 1.72201e-18)
(1.64673 1.89619 7.06391e-18)
(1.52559 -3.38817 6.46918e-18)
(1.09063 -13.0485 -8.99396e-18)
(0.517971 -0.0710838 1.12984e-17)
(0.0527125 -0.136813 1.44685e-18)
(0.639271 0.199076 3.47974e-18)
(0.992931 -0.787134 8.69696e-19)
(1.07967 0.821586 8.18187e-18)
(-1.93097 2.66287 8.23713e-18)
(3.63639 -6.49325 1.28582e-17)
(0.36939 0.127507 1.45354e-18)
(0.483253 0.549835 7.73487e-18)
(-0.129783 0.609992 7.04697e-19)
(5.77218 5.41176 -1.05365e-20)
(-0.756584 0.911074 5.57452e-20)
(-0.990211 1.20378 2.20071e-19)
(1.5292 2.3874 5.49505e-18)
(1.09465 -13.1955 1.37506e-17)
(0.0715479 0.185288 1.99707e-17)
(-6.62599 2.81025 8.49844e-18)
(-3.79964 -2.99461 3.88488e-17)
(-3.16725 -4.03719 4.24463e-17)
(-2.00838 -6.59499 4.14291e-17)
(-3.34822 4.46122 4.29015e-18)
(-0.032006 0.671502 1.0787e-17)
(-5.47465 5.64363 5.77751e-19)
(0.24647 0.122634 5.49179e-18)
(5.08682 -8.28888 3.14488e-17)
(1.28835 1.21611 1.32855e-17)
(0.463718 -0.406861 -7.94272e-19)
(0.621726 0.28123 5.06884e-18)
(0.668732 1.03078 7.7748e-18)
(-5.41179 -0.542336 2.63304e-17)
(0.668587 -0.213414 1.39023e-18)
(0.71455 0.232126 2.43687e-18)
(-5.95511 0.525203 1.99359e-17)
(0.70872 0.248123 2.5189e-18)
(1.06441 -2.27006 5.36348e-19)
(-1.20098 -7.9825 3.94451e-17)
(0.49422 -0.155264 -1.17991e-19)
(0.6159 -0.536725 1.80977e-19)
(-0.367002 0.679886 -3.16969e-20)
(0.411071 0.0909614 -3.81008e-18)
(0.477471 0.246852 6.26813e-18)
(1.40449 1.73895 1.04216e-17)
(0.953065 -12.8054 2.21049e-17)
(3.34999 -10.582 3.23647e-17)
(-5.16613 5.30788 -1.10476e-18)
(1.03884 2.57095 6.32977e-18)
(0.090536 -0.0240643 4.17597e-19)
(0.0846228 -10.6551 3.19505e-17)
(0.416478 -0.0160378 8.36385e-18)
(1.02215 -14.0192 1.05724e-17)
(0.964776 1.50714 5.43025e-18)
(0.826486 6.6623 2.58646e-18)
(0.641507 0.183964 2.81303e-18)
(1.38262 2.35209 5.81464e-18)
(-2.88793 3.6802 8.39534e-18)