/*--------------------------------*- C++ -*----------------------------------*\
  =========                 |
  \\      /  F ield         | OpenFOAM: The Open Source CFD Toolbox
   \\    /   O peration     | Website:  https://openfoam.org
    \\  /    A nd           | Version:  8
     \\/     M anipulation  |
\*---------------------------------------------------------------------------*/
FoamFile
{
    version     2.0;
    format      ascii;
    class       volScalarField;
    location    "1";
    object      alpha.water;
}
// * * * * * * * * * * * * * * * * * * * * * * * * * * * * * * * * * * * * * //

dimensions      [0 0 0 0 0 0 0];

internalField   nonuniform List<scalar> 
1924
(
0.00780498
0.00122711
0.0121578
0.00294018
0.00152602
0.000162587
0.000379973
0.000149153
0.000371332
0.026271
0.000405807
0.000338962
0.000296922
0.000340024
0.000438734
0.000295017
0.00131521
0.000420264
0.152621
0.00033414
0.00601851
0.000101768
0.00530249
0.000234623
0.000101731
3.73892e-05
0.000455723
0.000261407
0.000293723
0.000151561
0.00495472
0.0010064
0.00248233
0.00539701
0.0174815
0.00594151
0.00100648
0.0197449
0.000166211
0.00591124
0.000588818
0.00590104
6.29068e-05
0.00806543
0.00175665
0.000102337
0.203168
0.000200845
0.776757
0.00201526
0.008808
0.000320816
0.000684607
0.008808
0.00132409
0.000229277
0.216944
0.00164813
0.000793478
1.39186e-05
0.0143037
0.000324433
0.024881
0.000249768
0.154066
0.000236411
0.000830788
0.00016037
0.00010275
0.0221008
0.000146971
0.000203432
0.000251029
0.000380135
0.000389966
0.0049421
0.000400437
0.000287837
0.00014838
0.024881
5.04122e-05
0.000118892
0.000152428
0.000738575
0.0130279
0.00413596
0.000236411
0.000448207
0.285222
0.000134329
0.000920608
1.45777e-05
0.000814301
0.00180961
0.000816538
0.955124
0.000272803
1.24487e-05
1.74019e-05
0.00494213
0.0679281
0.00124202
7.9533e-05
1.40342e-05
0.00337333
0.000149856
0.00906915
0.0040852
1.36984e-05
0.00186795
0.000447293
0.000104478
0.0687298
0.000140787
0.000148883
0.000134351
0.0581985
0.000118193
0.00658584
0.000448165
0.0700327
1
0.00231853
0.000134329
0.000229268
0.00363489
0.00494213
0.000108059
0.000354676
1
0.000453547
0.0437681
0.00141268
0.000142756
0.000764887
0.00188431
0.00646751
0.000105866
0.000225425
0.0692048
0.000230597
0.000216269
0.139012
0.000101438
0.00697765
1
0.00254413
0.00494211
1.3658e-05
0.00992308
0.000158646
1
0.00493488
0.0437333
0.000105926
0.00361798
1
0.0678592
0.000447293
0.00159335
0.000141044
0.00234407
0.0275403
1
0.000267189
0.00359902
0.00361819
1
0.0004598
0.000307021
0.000106894
9.46073e-05
0.000105702
1.4076e-05
0.000230917
0.00351392
0.000145609
0.000916967
0.031011
0.000431895
6.96196e-05
6.92063e-05
0.000454261
0.00172392
1
0.0324928
0.00162365
2.9465e-05
0.0004598
0.000144378
0.000453618
0.000106242
0.00024866
9.30794e-05
0.000300448
1
4.0587e-05
0.00298237
0.000921885
0.00116602
0.000101438
0.0012268
0.000849196
0.0002862
0.000217681
5.59109e-05
9.30794e-05
0.000271901
0.00487001
0.00139736
1
0.000307021
0.00020447
0.000142266
2.50078e-05
0.000108059
1.36522e-05
0.00228355
9.30794e-05
0.000108292
0.000333623
0.000162862
0.00102401
3.64326e-05
0.00040658
2.92178e-05
0.000387083
0.000262736
0.0131979
0.00108436
0.000714252
0.000341331
5.16289e-05
0.00419102
5.01052e-05
0.00758543
1.10188e-05
0.000128513
0.0201187
1
0.000218994
2.50746e-05
1.07673e-05
0.000271901
0.00302989
0.000326375
0.000425118
0.00022934
0.000441297
0.000108862
0.000644572
1
0.00509708
0.000391604
0.000237254
1.22614e-05
3.26704e-05
2.50746e-05
0.000226924
0.000430792
0.000110195
0.0137929
1.41696e-05
0.000108059
0.000654431
0.000311812
0.00340974
0.000107721
0.00129048
0.221126
0.00355825
0.000182757
0.000101665
0.000265009
3.72323e-05
0.000142167
0.000354322
5.80547e-05
0.0253909
4.19721e-05
0.170441
1
0.000920608
0.00444376
0.404156
0.000256321
0.000408955
1
0.000435419
2.50316e-05
0.0249968
0.00135658
0.000564401
1.13769e-05
0.00275261
0.00649356
4.85081e-05
0.00027193
0.000108711
1.18831e-05
1
0.0278158
1.08583e-05
1.36169e-05
0.000351218
0.00100695
0.000296811
1.08367e-05
2.5864e-05
0.00014838
0.000271901
0.0203016
0.000261577
0.00164796
0.00023426
0.000295593
6.95831e-05
0.000362105
0.0249035
0.000130582
0.000128531
0.00285327
0.0224703
0.00074617
0.000993216
0.000291451
2.5056e-05
0.00100695
0.000234244
0.000416778
2.78556e-05
0.000812896
0.00192132
0.000399249
0.000109504
0.000365948
2.41405e-05
0.0122302
0.000225285
0.024776
0.000291451
0.000446839
8.80904e-06
0.000417413
8.2034e-05
0.000201998
0.000101438
0.00022817
0.00386345
0.00100733
0.000991955
0.000638022
0.036326
1.22803e-05
0.000283449
0.00018222
1
0.000358718
5.8501e-05
0.983123
0.000817911
1.22614e-05
1.47635e-05
0.000198158
0.00108615
0.00397071
9.80006e-06
0.00140967
0.000367237
0.00526876
1.09879e-05
4.68686e-05
0.00100695
0.000119224
1.45259e-05
0.000134351
1.20653e-05
0.00016751
8.80904e-06
0.000464476
0.000202247
0.000132482
2.5056e-05
0.000228842
0.000261104
1.08218e-05
0.000110565
0.00075076
1.52258e-05
0.000144478
0.00669003
0.00137746
2.73926e-05
0.000576105
0.000145254
0.00128643
0.000378415
8.33639e-06
3.97562e-05
0.000246963
1
0.000108258
0.00233915
0.00330457
1
2.4363e-05
1.06821e-05
0.000227225
0.000506726
0.000587115
0.000211515
0.000268442
0.000401625
0.000130411
0.000315329
1.4133e-05
0.000155689
1.61249e-05
0.000311051
0.000247307
2.03504e-05
0.00348942
1.06529e-05
0.000273016
0.00108624
2.00161e-05
0.000325866
0.00314115
2.61646e-05
1.40517e-05
0.000428269
0.000167867
1.39886e-05
0.000197256
0.000281355
1.39295e-05
1.99296e-05
0.00243726
0.000139093
0.00104771
2.55445e-05
0.000141917
4.54151e-05
0.0360194
0.000560306
0.00304352
0.000356242
0.00010856
0.000325144
0.000732389
1.42985e-05
2.7442e-05
8.07728e-05
1.13916e-05
0.000476978
0.000122352
1.08933e-05
1.24306e-05
0.000197332
0.000201232
0.000291451
8.02175e-06
0.00262119
0.0034195
0.00358728
0.000672126
0.000234677
0.00031637
0.000382026
0.000148375
0.00108283
0.000264732
0.000122275
1.10655e-05
0.00352705
0.000283907
0.00338093
0.000446396
0.000637781
0.000247257
7.57608e-05
0.00039029
2.08507e-05
0.000265334
8.00104e-06
0.00108516
4.6993e-05
4.67702e-05
1.36979e-05
0.000402429
0.000293648
1.48879e-05
0.000197405
0.000268967
2.03504e-05
3.90975e-05
0.000425555
0.000644486
0.000528486
0.00125789
2.0069e-05
1.31496e-05
0.0005841
7.79056e-05
0.000321535
1.35121e-05
1.206e-05
0.000778112
0.000304622
1.69252e-05
0.000235802
3.99524e-05
0.000672126
5.80547e-05
0.000352789
0.000175086
1.32588e-05
0.000357142
0.000390925
0.00021751
0.000197257
1.2283e-05
7.15054e-05
1.35046e-05
0.000462667
0.000385055
0.000106875
0.0127056
0.000194317
0.000315329
0.00134126
0.000448207
0.000498082
0.0254886
0.000331662
0.0010028
0.000320592
0.00352705
0.00269254
0.00108283
7.95361e-06
0.00412991
0.024881
0.000108241
1.71801e-05
1.66869e-05
0.000395828
0.000249697
0.000675386
1.09389e-05
0.000159978
1.34912e-05
0.000247902
0.000388827
0.000789931
0.00738167
0.0127056
0.008808
0.00136977
0.00453551
0.000507223
0.000691617
0.00493488
0.000210535
0.000732797
0.00148831
0.000180133
0.00033935
0.000128531
6.96768e-06
8.6376e-05
1.3658e-05
0.000789957
0.000644486
0.000108576
8.25698e-05
0.0550643
0.000358335
1.45252e-05
0.0022579
7.37404e-06
0.000431574
0.000359351
0.000394746
0.265371
0.0166376
1.86142e-05
0.00387402
8.06314e-05
0.000891161
0.000172262
0.000461384
0.287383
0.0218629
0.0222951
1.45252e-05
0.00108356
0.000331758
0.000890663
0.00129208
0.983142
1.21583e-05
0.00031637
0.000252909
0.000147758
0.000449557
0.000180756
0.000256659
0.000164458
0.00383582
0.000174938
1.2509e-05
0.0386894
0.000336375
2.24584e-05
0.000372216
0.000861623
0.000198518
0.811888
0.000253245
1.43669e-05
6.43886e-05
0.000369033
7.86248e-06
0.000431755
0.000111184
0.0127594
0.000425952
2.23083e-05
0.00708699
5.28351e-05
0.000789639
0.000329489
0.00129155
0.00044478
0.983123
0.000789958
0.00148106
1.52694e-05
2.39734e-05
1.33308e-05
7.26411e-05
6.01451e-06
0.000245486
1.36407e-05
1.24016e-05
7.33447e-06
1.29818e-05
1.50348e-05
0.00294055
0.00183092
0.000210912
0.0685665
0.000889647
0.0654016
4.12813e-05
0.00183092
0.000252966
0.000175136
0.00935953
0.000272376
0.0186906
0.000108489
0.000193705
5.90844e-05
0.00121021
5.59724e-05
0.000313179
0.000808153
2.63668e-06
0.000123647
0.000183435
0.000628425
4.98284e-05
1.24245e-05
0.000196533
0.000445163
7.54246e-05
0.0441095
0.0239535
1.45252e-05
1.46652e-05
8.45985e-05
0.000336577
3.56232e-05
0.000316546
0.00123242
0.724284
1.45488e-05
0.0268209
0.000154655
0.000403953
0.000370314
0.000789639
0.00183092
1.23921e-05
0.0159598
0.000108078
9.92318e-05
7.86248e-06
0.000112472
0.00371067
0.000563352
0.00345735
0.414606
0.000364099
1.3024e-05
0.000667532
1.99825e-05
0.000381842
0.0016469
0.0258192
1.29355e-05
0.998975
0.000193508
1.54217e-05
3.46647e-05
0.000445354
1.24142e-05
0.69228
0.000108813
0.000424623
0.000115537
0.355126
5.28351e-05
0.0040185
0.000135165
0.956212
0.000151101
2.51182e-05
3.27545e-05
0.0273332
0.00178712
0.000108865
4.89667e-05
0.000695224
0.00124676
2.26696e-05
3.72502e-05
0.00459738
0.115491
3.55522e-05
0.000147765
0.60791
0.00034443
0.0463054
2.41112e-06
0.184346
0.0016451
9.88431e-05
0.000662343
0.000323532
0.000449054
0.00193792
0.00204738
0.000902146
0.00260007
0.954235
1
0.000193121
0.000473296
0.000870609
1.43695e-05
0.000204217
0.000160997
0.0341229
0.000211377
0.000208621
0.354339
0.000852272
0.000319725
0.000428117
0.00678959
1.39245e-05
0.000522329
0.000119556
2.40174e-06
0.000634154
0.765308
1.33308e-05
0.00375019
0.000208957
0.000449014
0.00243959
0.000420387
0.000112638
2.92131e-05
0.000566263
4.60189e-05
0.00576253
0.00665204
4.71447e-05
1.54726e-05
1.50123e-05
0.000190078
0.000196935
0.000121656
0.117957
0.000403229
0.00157475
0.0136667
0.000151101
0.00124772
0.00457876
0.000114836
1.24476e-05
0.000326658
0.000222369
3.48526e-05
1.40279e-05
0.000140119
0.000181074
0.00867592
0.876642
0.00232692
0.848823
2.62755e-05
0.0730417
0.00124772
0.00118275
0.012778
0.000873954
1.24211e-05
0.0910961
0.00131664
8.63946e-05
0.000289938
2.88113e-05
3.48526e-05
0.732463
0.0002074
0.000143899
0.0023252
0.000254504
0.000890533
0.000176752
0.000127402
2.07683e-05
0.000206689
0.999998
0.000421398
0.965458
0.000930723
0.00122545
1
4.22655e-05
0.000520357
0.000415847
0.000425763
0.000660112
0.000449557
0.00134518
0.906484
0.000114944
0.000319725
0.000476193
0.00639459
2.39335e-06
0.567527
0.000109753
2.28073e-05
1.26009e-05
0.000351913
0.000510344
0.00585357
0.000533619
0.546577
0.00123502
0.928972
0.00391556
0.000211986
0.00064843
0.00391638
0.000318321
8.46608e-06
0.00106146
0.000115152
0.00388922
0.953423
0.000124547
0.00468813
0.00232847
0.000201735
0.000709712
0.000164819
0.00124772
0.000333151
0.000419506
0.00133089
0.00128627
0.000288914
0.000197153
0.918789
0.000196251
0.000101443
0.000179964
0.000181074
0.000142155
0.0324829
2.92314e-05
0.959653
0.000354013
0.000957105
0.825769
0.000101799
0.00124027
0.000151353
0.655911
0.00120992
1.26009e-05
0.000689769
0.00453551
0.000181074
1
0.824567
0.000756816
0.637607
0.000977514
2.36619e-06
0.000202869
0.0005058
7.92904e-05
0.000219422
1
8.70424e-05
0.332946
0.000193655
0.000928498
0.000449173
0.000494918
0.000144872
0.000414276
0.000248435
4.22259e-05
0.000940977
0.000580964
1.91082e-05
4.68214e-05
0.000133316
0.00134233
0.000114852
1
0.000189276
0.0960637
0.964913
0.000502941
0.000266882
0.000958685
0.973666
0.00018794
0.0200676
0.0012055
0.0463203
4.44457e-05
1.8282e-05
0.594466
0.00395988
0.00116055
0.973666
0.000547494
0.246715
0.000147635
0.00205424
0.000429775
0.705202
0.000644185
1.77162e-05
0.000558248
0.000101799
0.772292
0.000118993
0.00202029
0.000117529
0.000101799
1.54444e-05
0.00458834
0.000173227
0.00121011
0.000685305
0.000646506
0.000142155
0.0012095
0.0440484
2.36743e-06
9.16797e-05
0.001314
0.000194297
0.00198775
0.000508974
4.22538e-05
0.00350322
0.00074584
0.000193549
3.28975e-06
4.44464e-05
0.000379084
4.22241e-05
1.86352e-05
1.86133e-05
0.201469
9.15165e-05
0.685425
4.22259e-05
0.000453961
0.000148762
0.000151101
9.96238e-05
0.000203308
0.000189485
0.0331406
2.99534e-05
0.710689
0.000560812
0.000204658
0.000183298
0.000181074
0.000644062
0.00015787
0.00205099
0.0011984
0.000172557
0.000490106
0.000170633
1
0.000208873
0.000138627
0.000960724
0.000254254
0.00132475
0.000148373
0.000390168
0.219193
0.0440484
0.000167308
2.25826e-05
0.37426
0.546119
2.32972e-06
4.08539e-05
0.0111133
0.00118358
0.00404395
0.000102677
0.000442345
0.00132868
0.000555594
0.000184767
0.000165938
0.000945791
0.000104162
0.000697429
4.18126e-06
6.5414e-05
0.973666
0.000186456
0.000128124
0.000426231
9.15343e-05
0.000209693
0.00131525
4.22246e-05
0.00119711
0.0285023
4.44453e-05
0.00474432
0.954354
0.000157261
5.02776e-05
0.000112698
8.98559e-05
0.771717
0.000281861
0.685467
5.0333e-05
4.42519e-05
0.000493351
0.00133433
0.372439
0.000267309
8.9144e-05
0.00110974
0.00472285
0.000705007
0.00132095
0.755344
0.96028
4.22246e-05
0.000122655
0.000177397
0.000562758
0.000176644
2.33975e-06
1.91152e-05
0.000710014
0.00485741
0.000258953
0.000960014
0.000106207
0.000139456
0.00132604
0.641687
4.62148e-05
1.2288e-05
0.00800872
0.00121216
0.000209144
0.936561
0.00302327
0.00112207
1.78713e-05
0.000259544
0.66025
2.057e-05
0.598714
0.643535
0.000437471
0.738977
0.000394485
6.32874e-05
4.44268e-05
0.000107231
0.00115363
0.504023
0.000564814
0.000159982
9.20557e-05
0.000640383
0.00129832
4.42541e-05
0.00121288
0.000149685
2.04346e-05
0.000896398
0.000241803
0.000912805
4.22244e-05
0.000130434
0.000177356
0.000165216
0.982372
0.000780285
0.000555769
0.892195
0.936933
0.0259551
0.000382684
0.000215666
0.000176453
2.32972e-06
0.0040536
0.970909
0.00131524
0.000118627
0.000521934
1.87406e-05
0.00050025
0.000148432
0.985763
0.0013195
0.0285624
0.000187245
0.000202161
0.965279
0.000725494
0.000176453
0.76197
0.900198
0.000206519
7.87467e-05
0.000232727
6.19411e-05
0.00188077
0.00290124
0.889378
0.00044498
1.66765e-05
0.000375135
0.00419186
0.00014634
1.76892e-05
6.96827e-05
0.00305351
0.000563149
0.00988548
0.00179223
0.000694206
0.372439
0.000437677
0.000112018
0.000263647
0.000725508
0.000355134
0.000113968
0.0010556
0.00339442
2.31057e-05
1
0.000438497
0.000729855
0.702085
0.000662172
0.000412345
0.000337223
0.000164639
0.0013161
0.000536999
0.000446566
1
0.00013044
2.63934e-05
0.00121579
0.000481146
0.94158
0.000562824
0.00280217
0.219385
0.000242741
0.00038226
3.94127e-05
0.146896
0.00400365
0.000518396
0.000266021
0.000119977
0.224047
0.000478961
0.985822
0.355535
0.952056
0.000725564
3.89162e-05
0.00067871
0.00358566
3.94444e-05
2.64252e-05
1.88989e-05
2.73523e-05
0.00170428
0.00131525
7.55762e-05
0.000473929
1.88744e-05
0.000577725
0.982373
0.982396
0.000563151
9.46496e-05
0.000251212
0.0224537
0.0438965
0.00321372
0.00522571
1.88337e-05
0.000538418
2.164e-05
0.00500645
0.000163945
0.710484
1
0.00233977
1.79724e-05
0.000543285
0.784077
0.976842
0.000678214
0.986164
0.00290124
0.000122765
0.000164864
8.90658e-05
0.000116886
0.000160089
0.823149
0.00308133
5.66652e-05
0.000445119
0.000563145
0.000211102
0.00329342
0.729617
0.476258
4.20119e-05
0.00015845
0.982459
1.83441e-05
0.000726142
5.43599e-05
0.000359651
0.000301693
0.000449321
1.87564e-05
9.46496e-05
1.90173e-05
1
0.000904805
0.875729
0.000164592
7.22983e-05
0.00647562
5.80383e-05
0.00485123
0.000184965
1.16017e-05
1
0.00050025
1.84488e-05
7.44712e-05
3.32975e-05
0.000760586
0.00172304
0.000206559
0.000329488
0.00100853
0.502751
0.000473116
3.86238e-05
0.000227901
0.541401
1.87607e-05
0.000267984
0.727279
0.000180086
1.90337e-05
1.86176e-05
0.0013259
0.00364749
0.00485741
0.000148566
3.86248e-05
0.0147056
0.00130994
0.00050025
0.0102565
0.000383353
0.00651307
0.985991
3.86185e-05
0.985822
0.000492924
0.00119538
0.000449994
0.999695
0.00174319
0.000364809
0.372439
0.00528278
1.87742e-05
0.208864
0.000315824
5.36864e-05
0.000210304
4.70862e-05
1
0.000725487
0.0003741
4.74695e-05
0.000698155
0.970831
0.758179
0.981747
1
0.000443194
0.982161
0.000141962
0.000540784
5.00842e-05
6.31517e-05
0.000121028
0.00479416
0.354029
0.0065456
0.00336942
0.00336942
0.000493023
0.000188192
1
0.000725501
5.00842e-05
0.102994
0.000355809
0.107813
0.769161
0.0472916
0.0013028
0.982459
1
0.899926
0.0860484
0.000331226
1
3.24067e-05
1.54227e-05
0.00528218
0.0325939
0.000351776
0.0770318
7.08133e-05
0.860166
0.097353
5.51691e-05
0.563833
0.000437748
0.00040229
1
0.000725564
0.111299
0.00651103
0.922713
0.00130632
0.0039409
0.000373246
1.12125e-05
0.000209799
0.000248634
0.00270404
0.000306578
0.0453288
0.000155314
0.123907
0.000146916
3.87958e-05
0.00657662
0.972958
0.00351314
0.530897
1
0.121583
0.000196258
4.16425e-05
0.00423755
1.12163e-05
0.00034475
0.64586
0.000480826
0.00043442
0.00072614
3.71459e-05
3.76044e-05
0.986191
0.000185112
4.18708e-05
0.000484763
0.000156064
4.09945e-05
0.0027273
0.128731
0.00652114
7.97814e-05
0.136195
0.00116645
0.00050025
0.000720387
0.000401748
3.45529e-05
0.000256144
0.0704154
0.000155314
0.000429198
0.000143905
0.107044
0.00224379
1.13062e-05
0.000308595
0.000247482
0.00520321
0.00651307
5.3777e-05
5.43599e-05
0.00049263
0.000156698
0.00022815
1
0.000135131
1
0.000218781
0.965539
0.000609768
1
0.000386988
0.000351022
0.000725048
0.000909327
1
0.00643512
0.00062191
1
0.982409
0.982507
0.0139322
0.00969156
3.85136e-05
4.3284e-05
1
3.27769e-05
2.87969e-05
0.315051
0.000247696
0.982101
0.000116238
0.00651103
0.000257311
0.000553708
0.000452485
0.981339
3.84612e-05
0.0586279
0.0148681
0.00259148
3.84612e-05
5.84024e-05
1
0.107855
4.24403e-05
0.0499877
0.0668365
0.000247612
0.0940425
0.000369234
3.1371e-05
0.0343418
0.000373801
0.000484352
0.077245
9.84235e-06
3.77098e-05
0.856836
0.0974568
0.111292
6.56859e-05
0.000316258
0.000112049
3.15449e-05
1.12125e-05
0.00293228
4.48455e-05
0.148122
0.918789
0.918789
0.121659
0.000141957
0.00062191
0.0148681
0.000331269
0.000396917
1
0.000336158
8.49465e-05
5.83729e-05
0.000341119
0.936865
0.986166
1
0.121177
0.000257128
0.000247481
0.982405
3.76069e-05
9.84092e-06
0.000111539
3.36982e-05
5.32745e-05
0.0485544
0.135958
0.000622062
0.0138608
0.136195
3.00305e-05
0.101873
9.66667e-06
1.12125e-05
1
0.000175267
0.000175267
6.86076e-05
0.986179
3.84763e-05
3.1506e-05
5.55748e-05
0.00194962
3.61089e-05
3.88402e-05
0.000189127
4.11681e-05
4.00289e-05
0.108876
3.22493e-05
3.91558e-05
0.000779474
0.986192
6.69413e-05
0.058866
0.000144666
0.926365
0.00512182
1
9.71318e-05
3.39765e-05
9.55667e-06
0.00129605
0.000405614
0.0147277
1
0.960121
0.000708016
9.40009e-06
3.06227e-05
3.00305e-05
5.4055e-05
0.000158182
9.39938e-06
3.86726e-05
0.000185753
0.000720387
0.000720387
4.02286e-05
0.824247
0.000252027
0.00104992
0.000134664
5.51332e-05
0.00289623
2.98756e-05
0.000247696
4.11097e-05
1
3.08267e-05
0.102773
0.856907
0.000128591
0.000334898
0.982405
3.0939e-05
0.00128708
0.0119296
0.000372059
3.32325e-05
0.000313753
8.19168e-05
3.11717e-05
3.62679e-05
0.000335006
0.00112218
0.000123632
0.000342192
4.62646e-05
9.39938e-06
0.853267
0.000134764
3.75317e-05
6.59285e-05
0.00104399
0.00670185
3.02941e-05
0.930712
0.875029
2.80288e-05
1
0.000409652
3.02941e-05
0.000162558
0.00016831
9.39938e-06
0.0137447
4.29349e-05
0.000175576
3.0385e-05
5.45206e-05
0.000121545
9.48427e-05
4.0274e-05
1
1
9.41228e-06
3.22698e-05
4.44613e-05
0.762652
0.00346149
0.0167233
6.86076e-05
3.05235e-05
3.02141e-05
0.0167233
3.01312e-05
0.104255
0.10439
9.40009e-06
0.000134839
8.05158e-06
4.48066e-05
0.00109993
0.00120142
0.000715921
0.00120639
0.00592096
0.0134848
4.41307e-05
0.866217
0.000134529
3.13278e-05
5.66317e-05
1
1
2.96829e-05
9.60818e-06
0.00018181
3.80396e-05
3.77588e-05
8.24728e-05
6.17737e-05
0.000248126
0.000124506
3.82755e-05
7.35993e-05
3.02941e-05
0.0162215
0.0013098
2.53122e-05
0.000211516
0.0211362
0.0167233
5.50081e-05
0.0167212
0.000418883
7.62516e-05
3.39154e-05
0.00104467
3.08254e-05
0.0013345
7.96954e-06
0.00010376
0.016721
0.0140052
7.96087e-06
0.0194464
0.060736
0.0541982
3.09266e-05
0.762617
0.000273103
0.0169111
7.9608e-06
3.70617e-05
0.000943765
0.0014866
0.000572325
0.000536387
0.00057404
0.000435065
0.00257524
0.00044668
0.0171454
0.000956534
5.37522e-05
5.00553e-05
3.79544e-05
0.00251238
7.9608e-06
7.9608e-06
7.9608e-06
3.73468e-05
0.000100601
2.62267e-05
0.000285449
3.70539e-05
8.05136e-06
0.00291225
0.00291225
7.96162e-06
0.000383865
0.00227818
0.00294248
0.00357463
0.00157166
0.000873806
1
1
4.74892e-12
1
0.000669687
1
0.067145
0.0669829
0.000654986
0.0612019
0.0612978
0.0144076
0.0206691
0.0663612
0.0978584
0.00685516
0.000572913
0.000572913
3.77869e-05
7.62855e-05
9.8308e-05
0.000572913
0.000572912
0.00300924
0.000297366
0.0504271
0.0541321
0.0581507
0.0321576
0.034474
0.000574008
0.000257258
0.000453114
4.1617e-05
0.000446844
0.00038246
0.762591
0.785384
0.999998
0.275733
0.462396
0.784208
0.972739
0.000272188
0.794768
0.986192
0.963965
0.999998
0.0004598
0.974101
0.214047
0.788392
0.686063
0.000399479
1
0.971616
0.00352705
0.999999
0.0139007
0.00358856
0.989053
0.598028
0.598028
1
1
1
1
1
1
0.00178796
0.252264
0.999275
0.970949
0.970884
0.970884
0.998638
0.00358924
0.000197405
0.970949
1
1
1
0.99499
1
0.216655
0.000165824
0.873694
1
0.999998
0.846244
1
1
1
1
1
1
1
0.999998
0.00178717
0.00358728
0.970911
0.000174979
1
0.970886
1
0.970911
0.000652966
0.970949
0.00291
0.970771
0.0135277
0.00728189
0.970889
0.00065087
0.953896
0.999937
0.970949
1.08107e-05
0.345052
0.000361838
0.598028
0.945513
1.07381e-05
0.945547
1
0.834038
0.00724543
0.000159483
1.06495e-05
1
0.861251
1
0.00040988
9.80346e-06
0.43074
1.08499e-05
0.0006037
1
0.0020584
1.08367e-05
0.222642
0.000272209
0.317477
0.678545
0.969961
1
0.000272209
1
1
1.06589e-05
)
;

boundaryField
{
    patch0
    {
        type            zeroGradient;
    }
}


// ************************************************************************* //
