/*--------------------------------*- C++ -*----------------------------------*\
  =========                 |
  \\      /  F ield         | OpenFOAM: The Open Source CFD Toolbox
   \\    /   O peration     | Website:  https://openfoam.org
    \\  /    A nd           | Version:  8
     \\/     M anipulation  |
\*---------------------------------------------------------------------------*/
FoamFile
{
    version     2.0;
    format      ascii;
    class       surfaceScalarField;
    location    "1";
    object      alphaPhi0.water;
}
// * * * * * * * * * * * * * * * * * * * * * * * * * * * * * * * * * * * * * //

dimensions      [0 3 -1 0 0 0 0];

internalField   nonuniform List<scalar> 
2805
(
3.13725e-07
0
2.59653e-06
1.00637e-06
-1.86488e-06
0
-5.4821e-05
0.00010654
2.37865e-06
-1.60207e-06
-1.42097e-06
2.70233e-07
0
2.4775e-06
2.2874e-06
-2.10568e-06
1.1444e-06
1.22891e-06
4.25426e-06
-2.90769e-06
-1.64985e-05
1.6556e-05
7.70849e-07
3.617e-06
3.70575e-06
-3.01504e-06
9.49624e-08
4.33629e-07
-6.86119e-07
1.15696e-06
2.49747e-06
3.12229e-06
-4.95115e-06
-6.05018e-07
3.44583e-07
8.0254e-07
-2.79862e-06
8.97537e-07
5.09017e-06
-3.83224e-06
-7.59884e-05
-2.76235e-06
4.02431e-08
4.70864e-06
-1.48996e-06
-9.69398e-08
2.31622e-06
-2.77462e-07
-1.18863e-08
5.45531e-07
1.86747e-06
-3.77225e-06
3.78981e-07
2.0515e-06
-1.22587e-06
1.75747e-08
-5.53268e-08
2.48799e-07
-1.21777e-07
-3.83712e-08
6.43962e-07
-1.36134e-06
8.90277e-07
-1.13459e-06
4.29211e-08
-4.3428e-08
9.37133e-08
-1.4511e-07
-1.0563e-06
7.07753e-07
2.97277e-07
2.91029e-06
3.99703e-07
2.48368e-06
-2.41221e-06
0
3.6819e-08
5.69681e-07
-5.7056e-07
-3.3917e-06
1.60882e-05
5.7531e-05
5.71993e-07
-1.81053e-05
1.49065e-06
1.05047e-06
-3.65093e-05
3.85475e-06
-4.27625e-09
-1.3084e-06
2.83114e-06
-1.9367e-07
1.4406e-06
2.69235e-07
-1.02848e-06
-5.38984e-07
-1.42431e-07
9.40328e-06
6.52586e-06
-2.79621e-06
-9.21567e-07
2.394e-09
6.08043e-08
-6.217e-08
6.54779e-05
-6.88771e-05
1.31832e-05
-2.20478e-06
3.03659e-06
-1.12197e-06
-7.52807e-05
-0.00013184
0.000221523
1.63535e-07
2.94419e-07
-1.44222e-06
1.18437e-06
5.10561e-06
-6.6372e-06
4.07718e-07
2.85374e-06
-3.77079e-06
5.47655e-05
-4.27918e-05
5.7822e-07
-8.75725e-07
1.19509e-07
-5.39849e-07
-1.14511e-05
3.90434e-06
2.16526e-06
-1.4677e-07
-1.79074e-07
3.6165e-08
1.4984e-07
9.9717e-06
-2.33318e-05
3.5385e-06
-6.08273e-06
-1.89124e-05
2.921e-05
-1.45907e-06
-6.69864e-07
1.41598e-06
1.92362e-05
0.00011972
1.11872e-06
1.32375e-06
-1.05492e-05
-2.02776e-07
1.0049e-05
2.57813e-07
2.49768e-07
9.74344e-08
-1.29473e-05
9.74302e-06
-5.31119e-09
-7.66425e-08
2.28299e-08
3.43258e-07
2.94132e-06
-2.77178e-06
-7.6299e-07
1.22353e-06
1.0063e-06
-1.39379e-06
-1.17556e-07
-3.42107e-06
3.54931e-06
3.52535e-06
-2.18351e-06
-2.38889e-07
1.72332e-06
-3.08135e-07
-8.26932e-07
-3.1522e-05
2.9481e-07
-6.40546e-07
-9.91063e-08
4.86102e-08
9.11231e-08
-1.42769e-07
-8.72301e-07
9.77613e-07
4.00725e-08
-4.49327e-08
0
-5.75469e-06
2.88208e-06
8.92885e-07
-1.94602e-07
-4.71128e-06
-7.70404e-05
1.87879e-08
-2.41092e-08
-2.83075e-06
-7.51992e-06
6.96703e-08
-2.1652e-08
1.49498e-06
5.3681e-06
-1.03228e-06
-4.16722e-06
-6.16192e-07
5.84821e-07
0.00067776
-0.000606301
2.05741e-06
1.52642e-06
1.98586e-07
9.65906e-08
-1.3203e-07
-3.66167e-08
-4.69367e-06
4.58861e-06
-4.23256e-05
8.48588e-05
-4.56987e-05
-2.40794e-07
0
-1.69836e-07
7.17913e-08
-2.31061e-09
-1.01556e-06
6.16049e-06
-9.46655e-07
-5.9626e-08
1.98612e-06
-9.71424e-07
-1.87613e-06
1.32607e-06
2.49538e-06
-2.09749e-06
9.33591e-08
-5.22935e-08
6.88421e-07
-3.24275e-07
2.23139e-06
7.94619e-08
1.88541e-08
-2.96861e-05
9.02425e-07
-2.61115e-07
-6.52177e-07
8.74523e-07
-1.19549e-06
-4.11525e-08
-3.97697e-09
4.55793e-05
-4.95035e-08
2.78015e-06
1.24573e-06
-1.05601e-06
4.70758e-07
-1.16801e-06
-1.08212e-05
-2.08588e-05
-0.000383808
0.000381569
2.23929e-06
1.47635e-06
-6.52703e-08
-3.73714e-06
3.27103e-06
-4.31019e-06
7.3291e-06
-2.54212e-06
-5.5824e-06
2.17202e-06
5.42181e-07
-7.76313e-07
6.03265e-07
-0.000269763
0.000314778
-4.50149e-05
2.8574e-06
-3.19133e-06
5.07023e-05
-9.64371e-09
-1.79082e-07
0
7.50738e-07
4.56155e-07
7.92718e-06
-3.03801e-07
1.85892e-06
-1.85381e-05
3.15411e-06
-1.04454e-07
3.72906e-05
2.07307e-06
-3.87186e-06
7.1599e-05
-4.59392e-06
7.18747e-09
-7.21958e-09
-1.92925e-06
3.55834e-05
-0.000179373
-9.03896e-05
-4.42271e-07
-4.75645e-06
2.16702e-08
7.16637e-08
4.94993e-06
-1.3693e-06
-2.32061e-06
1.40133e-06
-0.000383808
-4.98711e-06
-5.77166e-07
-1.9275e-05
4.35181e-05
5.27631e-07
7.82205e-06
-5.79637e-09
0.000361916
1.96526e-05
-6.30376e-05
-1.32483e-07
2.85188e-06
-1.59366e-08
-1.14526e-05
7.77375e-06
-7.8648e-07
5.19238e-07
1.44339e-06
1.70857e-05
-0.000377575
-6.23267e-06
8.08664e-07
-1.39492e-05
1.30466e-05
5.88147e-06
9.41041e-06
-1.09679e-06
0.000149476
0.00021244
1.6943e-06
-2.69278e-06
1.41359e-07
-9.90295e-08
1.41677e-07
-1.05767e-08
5.12851e-07
-1.58837e-07
-7.24382e-07
3.51558e-08
1.36357e-06
-2.81201e-06
4.51909e-06
-1.50191e-06
-4.99911e-07
-1.6932e-06
1.95154e-07
-1.81208e-05
-2.85134e-05
-1.24204e-07
2.31139e-05
1.44816e-08
-9.90486e-09
0
1.98356e-06
-6.76237e-07
-1.41859e-06
-7.74594e-07
2.30716e-06
3.47465e-06
3.17399e-07
6.83493e-05
-0.000200189
0
-7.02986e-07
-3.90206e-07
7.09303e-07
-5.97695e-08
9.25527e-08
-9.06006e-09
-1.34368e-06
-3.53985e-07
8.60577e-07
-3.50388e-07
-6.41388e-07
1.19148e-06
2.64696e-06
-2.39265e-06
3.69216e-07
5.82274e-06
-2.71949e-06
-0.000377575
-1.01965e-07
1.92514e-07
-1.81079e-09
6.60905e-07
-3.49121e-06
-1.35768e-08
3.24947e-07
-2.00148e-06
-1.41935e-06
5.76826e-07
6.25955e-06
-1.56991e-08
1.15856e-06
1.98969e-07
-2.31451e-08
2.9273e-08
3.16882e-07
-1.76667e-07
-2.15167e-07
-4.54444e-06
-5.33365e-07
-0.000372135
-5.4408e-06
1.2877e-06
1.96005e-06
-1.02785e-07
-2.32772e-06
5.6405e-06
1.71288e-07
-1.05404e-08
4.80228e-07
5.79357e-08
-3.60975e-08
8.73543e-07
1.16476e-06
-3.43973e-07
-4.20802e-07
9.5213e-08
8.28596e-07
5.65144e-06
5.30606e-07
2.06392e-06
3.9053e-06
1.9787e-07
-6.27271e-09
-1.12838e-07
2.91112e-06
-1.28496e-06
-8.17955e-07
2.65453e-06
1.79178e-05
-4.46756e-05
-5.56668e-06
8.3537e-08
-7.22286e-08
-3.63093e-08
1.02186e-06
-3.75261e-06
-7.88455e-07
-8.57032e-08
6.99577e-07
-2.4116e-08
-1.14608e-05
-1.81778e-07
8.67219e-08
2.26953e-07
9.40964e-07
5.01747e-05
-4.37751e-05
-0.000372135
1.35123e-07
1.52002e-06
9.58285e-09
-3.39698e-08
-6.71923e-08
-1.169e-07
-3.72333e-07
1.9388e-07
6.40747e-06
-8.2805e-06
-1.75047e-07
3.17461e-06
8.47828e-07
2.74533e-06
4.33513e-07
-1.42646e-06
-1.35775e-06
-0.000253169
-0.000118966
7.10649e-06
4.28361e-07
1.1258e-06
8.9645e-07
-2.16244e-06
6.13206e-07
-7.65882e-08
2.93214e-08
0
4.11535e-08
-1.34305e-08
-2.90045e-08
2.28587e-07
3.49503e-06
2.03117e-07
1.46068e-05
-1.292e-08
4.83005e-08
9.11607e-07
-6.05744e-07
-7.47568e-07
3.52437e-08
-6.62156e-07
-1.77066e-07
3.92635e-07
-2.54533e-07
-4.60641e-07
1.42676e-06
0.000124216
-4.53924e-06
-9.45678e-07
-1.56857e-06
7.947e-08
-1.0571e-07
-8.74551e-08
9.5214e-08
0
1.45694e-06
-6.58142e-07
-8.94083e-08
3.31219e-06
1.25363e-06
-5.72188e-09
4.9757e-05
-3.40122e-08
5.39588e-05
-0.000253169
-6.29003e-06
2.6625e-06
-4.50581e-06
-4.45095e-05
-1.51443e-05
3.32238e-06
-3.33447e-06
-0.000314778
6.16092e-05
6.5622e-07
2.93234e-06
4.95577e-08
6.96362e-05
-5.10764e-05
-9.6264e-07
-4.51946e-06
3.05818e-06
-4.31078e-07
1.5466e-07
-4.91941e-08
-1.25511e-06
-5.8048e-06
-9.27621e-06
7.63969e-07
1.63329e-06
-1.35293e-08
-3.60012e-07
-6.10213e-07
9.15461e-08
8.40013e-06
-1.17093e-07
5.09578e-08
1.24239e-08
4.65408e-08
2.64893e-06
6.3666e-07
-1.55625e-06
4.77369e-07
1.08771e-06
4.49738e-08
-3.10645e-07
-5.94523e-08
-5.60977e-08
-1.23903e-07
-1.03451e-07
-3.91993e-07
-1.22111e-05
1.6247e-05
1.74704e-06
8.14916e-08
-4.03213e-06
-8.78496e-08
5.55681e-06
-1.26327e-06
-7.46751e-07
2.07162e-07
3.27677e-06
2.7867e-05
4.27823e-07
-3.99982e-07
-6.99754e-06
3.76879e-07
5.00124e-05
-8.24741e-06
1.47137e-06
-1.92468e-06
5.59147e-07
-1.20779e-06
-7.5781e-07
2.09654e-06
3.77672e-08
-1.62641e-06
1.05663e-06
-6.61354e-07
4.14041e-06
-7.4633e-08
1.93472e-06
7.57541e-06
-2.14443e-06
4.29394e-07
5.18363e-06
2.62682e-07
-5.57101e-07
2.59754e-06
0
7.57762e-07
1.45517e-05
-7.68399e-06
2.68269e-06
-9.0586e-07
5.52175e-06
-1.89719e-06
-2.37849e-06
-1.34049e-08
-8.96949e-09
-8.00442e-07
1.22549e-06
-5.35312e-08
2.40257e-06
3.18342e-06
-4.15069e-07
4.50712e-06
1.4868e-06
1.34426e-06
-1.73788e-06
-1.56878e-06
-5.4977e-07
9.88533e-06
4.1023e-06
-1.02736e-07
5.91369e-08
-3.71722e-08
-4.74233e-07
-1.39968e-06
-0.000126949
0.000213494
-8.65444e-05
8.32341e-07
2.41378e-06
-1.03978e-07
-5.77053e-08
0.00104024
-0.000361897
1.87494e-06
-8.22984e-07
1.2406e-07
-2.80712e-08
-6.58369e-08
5.38624e-06
1.78329e-07
-2.15911e-06
8.11319e-06
-5.81241e-08
-3.99937e-06
-4.14972e-07
1.72897e-06
5.38136e-07
1.71643e-06
-7.22925e-08
1.20912e-08
4.44393e-07
-5.47171e-07
4.66848e-07
-1.9864e-07
-3.98524e-08
1.84427e-08
-1.93297e-07
1.27967e-07
7.95837e-08
5.95396e-07
-3.48368e-08
-6.8441e-07
-6.30112e-07
7.91911e-06
2.41321e-06
-1.21893e-06
1.31724e-07
2.47701e-07
-1.53119e-07
-5.10979e-08
-2.1258e-08
-3.75725e-07
6.68343e-06
-1.07888e-08
4.31753e-07
-5.66441e-07
-3.91182e-07
1.24375e-07
2.3136e-06
1.57378e-06
2.7171e-06
-9.45482e-07
0
-2.02357e-07
-1.85346e-08
3.58584e-07
-6.46144e-07
2.51165e-06
9.94173e-05
-0.000278791
1.30948e-07
-7.58254e-07
-2.79453e-07
-3.26329e-07
-2.72817e-06
0.000149476
2.00775e-06
4.41935e-09
-4.77256e-08
-2.63306e-08
7.34032e-08
3.53563e-06
-1.37428e-06
9.37188e-07
6.33224e-09
-4.71317e-07
-3.2488e-08
4.28834e-06
-3.14278e-06
1.37625e-06
2.83283e-06
-1.18337e-06
1.20213e-08
-4.22578e-10
-1.26359e-07
-1.81538e-07
-8.5913e-08
3.17149e-08
0
-5.27761e-07
3.36634e-07
3.1154e-06
-2.65581e-08
-4.98716e-06
1.06812e-06
-1.42534e-07
-3.87741e-07
-9.20344e-07
-1.21776e-06
-7.11023e-08
6.22305e-09
1.74056e-06
-2.84947e-06
-1.37977e-05
1.65248e-05
-1.96997e-09
-9.14103e-09
-3.19909e-08
1.92882e-08
5.99769e-06
-6.42554e-07
-1.23615e-09
1.0642e-07
-3.24909e-08
-7.58354e-08
1.58951e-06
-1.31018e-08
-5.66914e-08
-1.94531e-07
3.26555e-06
-2.85563e-06
4.32642e-07
-1.19111e-06
-1.85822e-07
-1.00591e-07
-2.36165e-07
2.99636e-07
0
-5.54232e-06
7.60322e-06
9.45721e-07
8.30112e-07
-1.28938e-06
-4.30879e-07
8.6525e-07
4.46685e-06
1.05376e-06
2.27989e-10
-3.51737e-07
6.56698e-07
-3.93756e-08
3.94551e-07
-7.81222e-07
1.41018e-06
-1.92525e-08
-3.27168e-08
7.8398e-08
1.13815e-09
6.17175e-08
4.28547e-08
3.61835e-06
-1.62889e-07
-6.21888e-08
-1.70336e-06
-4.85681e-09
-1.53475e-08
-3.52189e-07
-6.86065e-06
7.27419e-09
-1.25546e-06
9.94262e-07
4.86824e-06
2.56716e-06
3.95184e-07
2.14713e-06
6.1134e-07
3.29699e-06
-9.40814e-07
-6.9167e-07
-6.5059e-07
-1.03061e-07
-3.04132e-07
1.01301e-06
-8.07917e-07
-4.40742e-08
-4.19672e-06
-7.12526e-07
-1.40845e-06
-2.44404e-05
6.60064e-06
1.73225e-06
2.61538e-06
-6.8703e-07
6.91375e-06
2.55356e-06
7.67435e-08
-2.07666e-06
3.82725e-06
2.35666e-07
6.22416e-06
-1.48503e-08
-1.88287e-06
-1.327e-07
-5.08213e-08
5.32705e-08
5.39433e-08
-2.41277e-08
2.73615e-08
-1.47841e-06
-5.94998e-07
-2.35544e-09
-1.3749e-07
1.01012e-06
-1.71464e-08
-8.2266e-09
0
-3.29285e-07
4.6008e-06
4.80714e-06
5.32354e-07
-8.98318e-07
-9.94311e-06
-9.54988e-07
-9.51054e-09
1.54688e-07
-9.8534e-07
-3.60156e-08
-3.16674e-07
1.54539e-07
1.00389e-08
7.44004e-09
2.68906e-08
1.3036e-08
-2.00374e-07
-5.71223e-07
-2.31757e-07
-3.13146e-08
4.72204e-10
-5.09743e-08
1.6054e-07
-1.89932e-06
-3.72047e-07
4.77021e-06
1.13673e-06
1.47511e-06
6.27429e-07
2.6951e-06
-1.29919e-08
1.49478e-06
1.36389e-06
1.60944e-06
3.1101e-07
-2.7002e-07
3.12929e-08
4.03216e-07
-5.07653e-07
-5.57363e-10
4.91855e-06
1.08462e-06
5.72828e-07
-8.66359e-07
-9.47892e-06
-1.98801e-05
-5.40066e-07
3.4543e-06
-1.38727e-06
-1.25122e-06
1.23797e-06
4.22632e-06
-2.46472e-06
-1.58749e-07
-2.51584e-06
-3.07041e-06
1.47133e-08
-1.61583e-07
1.13901e-06
7.44558e-06
2.55313e-06
1.08874e-06
-5.21402e-06
-3.72251e-07
-1.47841e-06
-2.60885e-10
-1.46632e-08
-1.41205e-05
2.82894e-06
-1.87246e-05
-1.25034e-05
-6.09414e-07
2.19475e-07
-2.25159e-07
0
-9.05295e-09
-2.13435e-06
-3.2628e-06
-2.11131e-06
7.41186e-07
1.03158e-06
5.85181e-07
-1.03686e-07
6.40716e-08
-5.92998e-07
2.25752e-07
1.32755e-08
1.66592e-06
1.17704e-07
-4.69562e-07
-3.39003e-08
-8.62047e-07
-4.36989e-06
-3.35836e-05
-3.81807e-06
-3.07792e-06
8.06799e-07
-2.26889e-06
-7.1553e-06
-9.35397e-08
1.03085e-07
-5.40403e-07
1.10579e-06
-2.26619e-06
9.03055e-08
-7.96132e-07
3.69176e-06
-5.84097e-07
-1.54969e-08
-2.18251e-07
-8.75539e-09
-6.02808e-07
3.39231e-06
7.16094e-07
5.76724e-07
-1.01644e-06
7.15072e-06
2.25837e-07
-3.43293e-05
-4.63367e-05
-4.46637e-07
4.83068e-08
-5.89313e-08
-5.5618e-07
-3.01473e-08
1.11779e-09
-1.69331e-08
4.24084e-06
4.6631e-07
4.17226e-06
8.05507e-07
2.4783e-05
0.000111491
-9.97921e-06
-3.15378e-08
2.97187e-08
-6.47172e-06
9.78398e-06
3.72477e-07
-1.57824e-06
-2.03325e-06
-1.51794e-08
-1.15471e-07
0
3.67455e-05
4.30199e-05
2.9448e-05
-1.28299e-05
-3.77507e-09
1.12278e-05
-1.57427e-06
-1.1652e-06
5.23776e-06
9.00451e-07
2.62808e-07
0.000684753
0.000356002
-1.25899e-08
2.81801e-06
9.48392e-07
-2.87524e-06
1.83448e-08
1.53259e-08
-8.25168e-09
4.03366e-06
2.12404e-07
9.38058e-07
-1.88688e-06
-2.91568e-08
2.52594e-07
-4.29126e-06
-6.81977e-07
-2.65143e-07
3.13515e-08
-3.46934e-05
4.2664e-07
-1.56871e-06
-1.77683e-07
2.21584e-08
3.70943e-07
4.82548e-06
-9.11377e-08
1.44177e-06
-0.000597974
0.000719868
-4.86146e-06
4.96528e-06
1.4828e-07
-1.19237e-07
-4.99751e-07
8.76627e-07
1.26636e-09
-1.00207e-07
-2.34365e-06
4.71873e-06
-3.2457e-07
-9.22862e-06
-3.10371e-05
4.16664e-06
1.72549e-07
-2.70563e-06
-5.77108e-06
1.47134e-06
2.26584e-07
2.80358e-07
-8.71257e-07
1.21907e-06
-9.1399e-07
-8.50789e-08
8.72661e-05
-5.79382e-07
4.80742e-07
1.06253e-09
-7.71268e-09
0
6.56096e-08
1.09191e-06
2.23402e-08
6.55389e-09
0
4.78861e-08
-4.97231e-07
-1.84709e-07
2.01199e-07
-3.05617e-09
3.46754e-08
-1.87212e-08
3.79902e-08
2.25972e-08
-2.77638e-09
2.16301e-06
-2.04503e-06
4.68749e-07
5.69678e-06
-0.000183098
5.46258e-07
1.08293e-07
-1.92382e-06
2.20152e-06
-8.18033e-07
-2.1052e-07
-1.47467e-05
3.05211e-07
-2.57144e-06
-1.29272e-05
-2.86927e-07
1.17355e-06
-1.65828e-06
8.45062e-07
-7.77428e-06
1.39051e-08
-6.77093e-07
2.51329e-06
1.25136e-06
-1.96632e-06
-2.42436e-09
1.19155e-07
-2.71648e-07
9.76688e-07
-1.51709e-06
-1.78825e-06
-1.07598e-06
2.83249e-08
-3.99143e-07
1.91465e-06
3.74927e-07
1.86742e-07
-2.06509e-05
0
-3.04124e-05
0
-1.08673e-07
4.86275e-08
-8.06354e-08
-1.22756e-08
7.29563e-07
7.86884e-07
1.36346e-06
-4.09336e-07
3.24295e-06
1.00928e-05
1.72707e-06
0.000192901
-0.00011365
-2.1561e-05
1.87642e-07
-1.92455e-07
-0.000181745
-2.56396e-06
-1.10462e-06
3.71034e-06
1.6842e-07
-7.45694e-07
2.54088e-07
-5.28884e-08
4.07608e-08
-2.07163e-05
6.69698e-07
-1.27881e-06
-1.83119e-07
7.57161e-08
-9.98722e-08
1.60079e-06
-1.98018e-06
-1.03515e-06
1.33124e-06
-6.66531e-07
-7.92305e-08
4.18171e-07
9.75612e-05
-0.000150979
-9.21845e-07
5.88066e-08
1.56997e-08
-4.80737e-07
1.73129e-08
1.03408e-06
-4.16804e-09
-1.03655e-06
-3.18534e-05
8.98627e-08
0.000144246
5.19455e-05
4.78037e-07
-1.01691e-06
2.34928e-07
1.154e-07
1.5503e-06
0
-1.83687e-08
-0.000162957
3.27168e-05
-3.5246e-07
2.51305e-06
1.06396e-06
-4.16861e-07
-0.000311911
-0.000259912
3.67492e-07
-6.4955e-07
1.28737e-07
0.000708641
-7.99002e-06
1.53329e-07
-2.74881e-07
6.55987e-07
-5.8492e-07
2.87591e-07
7.57914e-06
-1.27869e-05
1.22003e-05
-6.44548e-07
0
5.6908e-07
-1.38305e-06
1.20317e-05
-6.95796e-08
2.65593e-07
4.71741e-07
1.20518e-06
4.94732e-05
1.79179e-06
1.44956e-07
-4.10262e-07
5.65883e-05
-0.000114882
4.19903e-05
5.89565e-07
-4.56743e-06
-4.94294e-07
4.75694e-09
-8.15694e-09
-0.000694886
-7.22732e-07
-1.70075e-07
4.78286e-07
-3.87004e-06
3.11773e-07
-1.50825e-06
4.5689e-06
1.38055e-05
-2.74252e-06
-5.90975e-07
5.4254e-06
-1.26701e-05
2.51372e-05
0.000536089
0.000253587
-0.000154169
2.02267e-06
5.3857e-06
-6.42512e-06
1.04117e-05
1.21834e-07
-7.67678e-08
1.69657e-06
-2.27193e-06
-6.87556e-07
-3.63317e-05
0.000145604
8.41758e-07
-8.12256e-07
9.67403e-08
-6.76706e-07
-0.000797354
-0.000135769
1.93143e-07
-9.65148e-07
1.60218e-06
1.22266e-06
-2.37357e-07
-1.88791e-05
1.77961e-06
4.45205e-08
5.59926e-08
-1.79235e-07
1.20438e-06
-1.12936e-06
-3.4505e-10
-8.46324e-07
-0.00151163
2.89743e-08
-1.76364e-06
5.36035e-07
-1.33913e-06
-2.58131e-06
5.22179e-06
-7.71587e-07
9.60752e-07
3.01036e-06
-2.48491e-06
1.69304e-07
-5.29622e-07
-2.1771e-08
2.94683e-07
-4.37143e-07
-2.24854e-06
-5.21638e-06
1.34921e-07
-1.80696e-07
2.09206e-07
1.72534e-07
4.77994e-07
-1.13544e-07
-2.87034e-07
3.09973e-07
1.41042e-07
0.000227385
-0.000207403
-7.86321e-07
6.50864e-07
-5.04268e-07
2.49002e-07
2.54791e-06
-3.90755e-06
-3.13777e-05
2.45607e-05
1.07188e-06
-1.56408e-06
6.10155e-08
-4.02449e-06
1.63602e-06
1.70292e-07
7.73146e-08
-3.04548e-09
2.44177e-06
-2.8259e-06
1.4218e-06
-1.91297e-06
-1.44118e-05
-8.34822e-05
0.000433059
1.95525e-06
-2.94646e-06
-0.00125056
-4.12568e-05
1.12115e-07
4.40042e-07
-3.38177e-05
-9.57503e-05
-1.29948e-06
9.6391e-08
-6.98491e-08
-8.33901e-06
2.59357e-05
7.57055e-06
-8.43097e-08
6.5808e-08
-0.000360542
2.20336e-06
9.56315e-06
6.69826e-08
-1.29937e-07
2.16778e-07
2.74216e-07
2.73998e-07
-0.00111516
5.18708e-07
3.68662e-07
1.44321e-06
-2.46394e-06
1.59125e-06
-2.28257e-06
0
-4.66792e-07
7.98619e-07
-3.97873e-06
-1.82969e-08
-4.82841e-07
-3.82951e-08
2.54269e-07
2.72527e-06
-2.41826e-06
0.000289271
-0.000289271
4.87921e-06
-0.000450282
0.000530158
-2.06579e-06
5.48524e-08
2.86501e-06
-3.54685e-06
8.54906e-05
1.06265e-07
2.85716e-08
-1.29384e-06
-2.70219e-07
1.58637e-06
1.44941e-06
4.11921e-08
2.01003e-06
7.87229e-06
2.40773e-06
-0.00126609
-0.00029254
-3.44113e-07
1.70605e-06
-8.72718e-08
9.08929e-07
1.87679e-06
3.88793e-09
-5.08807e-09
0.000353245
-0.00036313
1.65768e-06
-2.00675e-06
1.40445e-07
-2.37181e-08
1.06608e-06
6.87666e-06
-2.03297e-06
-9.46569e-06
4.14961e-08
8.12687e-07
2.00826e-06
5.96691e-05
-7.50943e-07
-0.00147981
5.82454e-06
-8.78931e-08
-1.3688e-07
5.46862e-06
-8.25832e-06
4.12613e-06
8.05964e-09
-8.79758e-08
-4.6885e-06
-2.04571e-07
6.15491e-06
-1.13899e-05
-6.94424e-05
6.76743e-08
-2.55293e-05
1.54613e-05
-1.29778e-06
3.53399e-06
-4.08236e-08
-3.45165e-07
8.07452e-07
3.37972e-06
-4.65568e-06
3.83809e-06
1.15557e-06
9.9158e-06
5.64751e-06
5.81398e-07
-6.44955e-07
2.31238e-06
-2.60739e-06
-7.22394e-05
-9.06864e-05
3.59654e-07
-3.94566e-07
1.80321e-06
-1.29914e-06
6.53779e-07
2.23432e-06
-1.87368e-06
7.53953e-07
7.76548e-07
-2.69644e-06
-1.63795e-10
1.01209e-07
-0.00123387
0.00027503
-1.52495e-06
-1.23327e-07
0.000662165
-0.000148382
1.58265e-06
-2.84964e-07
-5.40878e-07
-5.38737e-07
6.60638e-07
-0.000342263
-0.000523242
2.04433e-06
-1.96127e-06
-3.14328e-07
-3.94457e-08
-5.46492e-06
3.71349e-07
-0.000548416
0.000548416
0.000277066
6.18072e-06
1.51071e-06
-0.000857429
-8.76647e-08
2.28364e-09
1.70032e-06
-2.92548e-06
-7.30235e-07
5.28147e-07
3.10387e-07
-5.22791e-07
0.000200651
-9.01045e-05
-0.000110546
1.59266e-06
-1.94012e-06
-0.000275105
-1.3825e-07
-1.1256e-06
6.34366e-07
1.45671e-08
3.37477e-06
2.88979e-06
-4.29569e-07
-2.84876e-08
5.70373e-08
-7.03799e-07
2.11733e-06
6.13475e-08
8.89285e-08
1.7938e-07
5.16223e-08
-4.22623e-08
-4.17694e-07
8.38191e-06
2.33481e-06
-2.74555e-06
7.96438e-05
-0.00062806
1.40558e-07
-5.09015e-06
-0.000522126
0.000505716
-2.41845e-07
-3.7108e-09
1.5554e-06
-0.0013209
-0.000145626
5.81621e-08
6.53558e-07
-3.30832e-08
3.76446e-05
-1.081e-06
2.37906e-08
-3.04624e-08
1.39878e-07
-1.03213e-08
-7.00353e-06
-0.00103246
7.83655e-07
2.68705e-06
8.15898e-05
-6.66519e-06
2.53728e-06
-2.11317e-06
9.42366e-08
-1.68189e-06
-3.17122e-06
5.46256e-06
0.000603312
-0.000469803
1.83826e-06
2.6232e-06
2.81601e-07
4.76043e-07
-4.14281e-06
2.31152e-07
-3.30339e-07
4.03238e-05
1.98149e-06
-2.31626e-06
1.62624e-06
-1.15621e-06
-3.11611e-07
-1.13393e-07
6.47386e-08
-8.60207e-07
-7.91436e-07
4.37844e-07
-2.7961e-06
8.61038e-07
1.63909e-07
8.45757e-07
-6.52245e-07
7.44647e-07
-2.12916e-06
-3.65573e-05
3.45514e-05
4.35148e-09
-2.69248e-09
2.52745e-07
-3.78465e-07
6.87382e-06
2.94668e-06
-1.0958e-07
1.71333e-05
-7.82175e-06
-5.84946e-06
1.96928e-07
2.32531e-08
1.8827e-06
4.90401e-06
-5.68629e-08
5.73914e-09
-4.53753e-09
-2.37503e-08
-8.74663e-07
3.31052e-08
2.39147e-08
5.2365e-08
6.93829e-08
1.37134e-07
0.000155763
-2.1579e-07
-0.000427439
-0.000270846
0
2.003e-06
-2.91432e-08
-7.29321e-08
6.16134e-07
1.23593e-06
2.37161e-06
-1.82628e-06
-1.59185e-05
2.5592e-05
1.61491e-08
0
-0.000634415
7.14424e-07
2.67889e-06
-9.99289e-08
4.08465e-08
4.72152e-07
2.44948e-06
-2.02737e-06
-2.32935e-07
6.62039e-07
-1.81038e-08
3.70227e-06
-4.41868e-06
1.88724e-06
-1.08112e-06
-3.39413e-06
3.18812e-06
7.37117e-07
0.000357621
-7.05949e-07
1.99129e-06
-2.23526e-06
-9.85636e-07
2.78926e-06
1.62545e-07
4.2889e-06
3.85537e-06
-2.0099e-07
1.62545e-05
3.26756e-05
1.77737e-06
2.53888e-07
1.33802e-07
0.00052907
-0.000255328
0.000246581
2.5595e-09
1.6566e-07
0
-2.76199e-07
-4.96543e-05
4.38341e-05
6.78035e-07
-3.04064e-06
7.51534e-06
3.32645e-06
2.95364e-07
-7.6925e-07
1.75062e-06
-1.74372e-06
4.00469e-07
-1.26217e-06
6.76432e-09
1.9579e-06
3.02282e-09
-3.89745e-07
5.31903e-07
-0.00105374
3.46789e-05
6.94235e-08
-2.32842e-07
8.91874e-07
6.36615e-06
-1.22173e-07
-1.70543e-06
7.03355e-06
-1.87121e-09
2.51103e-08
-4.62661e-06
2.56228e-06
-2.4116e-05
-6.12057e-08
3.18125e-08
-1.52993e-06
-0.000845312
-4.3845e-07
-3.99141e-07
2.68548e-06
3.17719e-06
-6.9006e-07
7.59781e-08
0.000237477
-0.000236915
-1.28828e-07
1.4977e-06
-0.000115292
3.60889e-08
-5.61719e-08
2.67839e-08
-4.59323e-07
1.38149e-06
3.52969e-06
-0.000246857
9.62293e-05
1.27557e-08
2.73967e-06
-1.79191e-09
-1.46559e-08
-2.44916e-07
2.26472e-05
-2.05803e-05
-3.13297e-06
8.20401e-07
1.34143e-06
-3.57277e-07
7.55583e-05
-6.71478e-05
0.000854668
-0.000953319
0.00019069
3.90153e-09
1.99992e-08
2.17674e-06
-2.09131e-06
-4.31464e-07
2.56453e-06
1.56887e-06
-1.13415e-06
2.93471e-09
-8.96819e-10
9.09941e-08
4.55757e-08
6.69833e-06
-5.33452e-06
-2.35946e-05
1.89546e-05
2.07234e-07
-5.39583e-07
-1.22835e-07
5.94405e-07
5.14504e-06
-0.000526154
-0.000174424
-1.23904e-07
1.33674e-08
-2.55255e-08
-8.4341e-07
2.85095e-06
-9.628e-06
8.40767e-06
7.70065e-07
-3.31233e-07
0.000516659
-0.000270043
-0.000236511
2.40865e-06
-1.4598e-06
-3.18451e-06
6.25545e-07
1.08878e-07
-2.10176e-08
-1.43659e-08
-0.000623318
1.31011e-07
-7.23704e-09
5.55948e-05
0.00101666
-2.92506e-08
1.75032e-06
-7.09917e-07
-2.53304e-08
4.54101e-07
-8.92368e-07
-3.68521e-07
-0.00067424
-5.82333e-07
3.65886e-06
2.9324e-07
2.51288e-06
-6.41921e-07
-2.02571e-06
-9.66565e-07
2.30067e-06
2.47298e-08
-1.00139e-05
-1.89887e-07
1.57803e-07
8.0341e-07
1.29906e-06
-6.69967e-07
2.27345e-06
6.45297e-07
2.89959e-08
-4.86772e-07
4.57636e-07
2.22735e-06
-2.05028e-06
-0.000435315
0.00019752
5.44319e-07
2.02251e-06
-0.000157972
-4.04842e-06
-3.30533e-07
6.79779e-08
-1.77624e-08
4.4876e-06
-6.71711e-06
4.73528e-07
-9.43185e-07
1.19797e-08
-1.90029e-05
1.01264e-05
-1.50293e-06
-3.43721e-05
3.59184e-05
2.41444e-06
1.24815e-07
1.50161e-06
-6.506e-08
1.20447e-07
-5.74499e-07
-1.09285e-06
4.75938e-07
0.00017218
4.04992e-06
2.84837e-06
2.77984e-05
-1.62165e-06
-1.65579e-06
1.5464e-06
1.24634e-06
7.78792e-06
-8.66305e-06
-2.90504e-07
1.39284e-06
-2.47485e-05
5.22015e-05
-5.88244e-05
-6.27951e-05
-5.60545e-07
1.89764e-06
-1.32284e-06
2.83687e-08
-5.76923e-07
-1.30582e-06
1.19273e-06
1.42286e-06
-0.000226253
1.03321e-07
-1.84815e-06
1.95416e-06
-5.74402e-06
0
6.47099e-07
8.57624e-08
1.03991e-07
-6.37467e-06
-1.51544e-06
4.09147e-06
2.21317e-06
-1.72508e-05
1.74051e-05
0
-4.64564e-06
-9.39841e-05
-0.000163589
0
-2.77273e-07
6.05559e-07
-1.55131e-07
1.51639e-06
-1.63254e-06
8.66328e-06
-9.36972e-06
2.43447e-06
-1.3377e-06
1.10373e-07
-5.69359e-06
1.6887e-05
-9.73099e-06
-2.79203e-08
2.3895e-07
0.000135162
0.000118425
-3.39891e-07
3.37776e-06
-9.77663e-08
-0.000678805
7.33223e-05
5.68143e-07
-1.87788e-06
3.33746e-06
-3.10971e-08
9.70525e-08
2.47841e-08
1.95273e-06
2.96856e-06
2.75813e-07
3.30568e-07
1.08267e-06
-1.39378e-06
9.01217e-05
0.000110529
-7.93547e-09
1.70834e-07
4.90454e-09
0
1.33611e-06
4.65374e-06
-1.26973e-06
-0.000774751
3.00513e-05
2.1563e-06
-2.73839e-06
0.000147132
-1.59467e-07
1.87993e-06
-6.30304e-10
7.45929e-07
-4.5469e-07
-3.99328e-07
-4.51143e-06
2.53255e-07
-1.62807e-08
-1.55244e-08
2.06486e-07
0.000214851
3.81309e-07
-0.000602397
-0.000608697
9.36847e-06
-9.80792e-06
1.48009e-07
3.40412e-07
-5.84469e-07
-1.13841e-05
-9.18859e-07
2.2004e-07
2.03833e-07
-8.37457e-08
9.34837e-08
1.61757e-07
-6.80942e-09
1.94358e-06
4.59808e-06
1.29235e-09
2.60075e-06
1.61351e-07
-5.49896e-08
-6.2658e-09
3.88185e-07
-0.000165558
0.000101844
3.12758e-05
-2.89223e-06
4.40149e-06
-1.45819e-07
1.55362e-07
-2.63508e-06
2.03117e-06
-1.91369e-05
-8.38041e-06
-1.15073e-05
4.64083e-06
8.23776e-08
1.38761e-07
9.69006e-08
-8.20023e-09
1.31574e-05
2.22406e-06
-1.66634e-06
3.71705e-05
-0.000119251
4.50149e-05
9.0147e-05
-1.38839e-05
1.16097e-07
-2.7049e-08
2.81174e-07
-7.79861e-05
1.08633e-07
-0.000740843
0.000606955
0.000133937
2.9115e-06
-1.63216e-06
1.50151e-06
1.10535e-07
-5.84711e-07
1.1952e-06
-1.32978e-07
2.47012e-07
-0.000225856
4.84785e-05
-1.63828e-05
9.1876e-06
1.34457e-06
-9.36272e-07
1.07902e-06
-1.24312e-06
1.20424e-06
1.5561e-08
1.74317e-06
-3.14887e-08
-0.000256513
-0.000337482
0.000635042
2.69041e-07
1.2296e-07
1.01425e-06
-1.99829e-07
0.000348609
-0.000505398
7.24285e-08
9.81396e-06
-1.00104e-05
-4.06229e-07
1.5777e-07
-1.54852e-06
3.48334e-06
-9.84904e-07
1.3285e-06
-1.32986e-07
1.478e-07
-6.63437e-08
4.18501e-08
7.29129e-08
-5.73802e-05
0.000147502
3.04585e-06
-0.00057673
-6.20516e-07
1.27969e-06
9.77576e-08
3.38595e-05
-1.64224e-05
-2.85726e-07
2.42088e-07
-2.45658e-06
1.15738e-08
-2.77958e-08
6.10447e-05
-4.29234e-06
3.85273e-06
1.23667e-07
-4.46906e-08
5.77895e-07
1.51375e-07
1.03531e-06
1.58244e-06
-1.00142e-06
1.49098e-06
9.54488e-07
-9.52923e-05
-8.70964e-09
-6.04236e-07
1.47409e-07
-6.92226e-07
-0.000483016
0.000221797
9.15764e-08
5.79218e-08
3.67596e-08
-0.000210934
-4.19885e-05
9.54867e-07
1.28988e-07
-5.43362e-08
6.04478e-08
-9.47968e-07
-4.52792e-06
2.0495e-05
1.50094e-06
-4.23934e-07
-2.3673e-05
2.95573e-06
1.52219e-06
-8.20208e-07
3.27148e-06
-2.82737e-06
2.26992e-05
0.000797756
7.3091e-07
-5.83649e-07
0.000195534
-3.87418e-06
3.90396e-06
-9.40269e-06
-0.000244113
1.75326e-06
-1.49496e-06
2.33734e-06
-2.22312e-05
1.14388e-05
8.40355e-08
3.86832e-05
1.00283e-06
-2.19696e-08
9.12341e-08
5.46402e-07
-9.93334e-07
3.73415e-07
1.7338e-06
-9.48322e-07
-5.76371e-07
5.9644e-07
-9.78166e-06
1.00069e-05
-1.16978e-06
4.4906e-05
5.51893e-06
0.00011314
-2.61061e-06
5.72649e-07
0.000147466
8.4278e-07
-7.39678e-07
-3.44697e-06
3.50142e-06
-2.44337e-07
7.57251e-08
2.02087e-07
-2.59162e-08
0
-1.12702e-05
-3.74348e-05
1.98472e-05
-9.91421e-06
4.20345e-09
4.40108e-07
-8.23673e-05
0.000195507
-1.43135e-07
-0.000105019
-5.28358e-07
0.000228414
-0.000221084
-0.000693325
0.000153041
0.000222689
-0.000199597
9.90582e-07
1.18543e-06
0.000507649
-0.000478227
0.000141635
0.000100628
-0.000330829
0.000174954
-0.000154996
-4.44673e-06
4.3812e-07
-9.0147e-05
0.000151192
9.94351e-07
1.83457e-08
-1.52432e-07
-9.29356e-06
-2.06165e-07
0.0001639
-0.000169699
1.2693e-06
-4.84673e-07
0.000195335
-0.000221149
2.02531e-07
9.06317e-05
3.88062e-05
-0.000118486
0.000227212
-0.0002332
1.80279e-07
5.43887e-05
8.91287e-06
6.92432e-07
1.97286e-06
6.21859e-07
0.000233477
-0.000232255
3.50482e-05
-1.20192e-05
-0.000395043
0.000155729
2.4093e-06
6.5645e-06
-5.98968e-07
1.12405e-06
-9.45725e-09
-1.04208e-06
1.84738e-06
-1.07575e-07
7.89185e-07
-1.26977e-06
3.26266e-06
-8.30922e-07
0
2.16096e-06
-0.000235722
0.000201466
1.42312e-06
-6.46659e-07
1.75038e-06
3.49874e-07
1.04853e-07
6.60005e-07
-5.17678e-07
-1.98965e-05
-0.00023161
-4.08213e-06
6.51347e-05
0.000230659
-0.000229204
-7.01537e-07
1.4319e-07
-7.42268e-07
-1.44095e-05
-2.15352e-08
1.28189e-08
1.17046e-06
-0.000472798
1.0405e-06
4.51237e-08
-4.05971e-08
1.07877e-07
-5.04944e-07
4.5076e-07
-0.000320112
0.000173446
0.000146669
1.16623e-06
-2.49604e-07
9.47615e-07
-6.20739e-07
5.78145e-07
-1.41006e-06
4.68064e-07
3.11736e-08
-1.39522e-06
8.18532e-06
-0.000293222
0.000356214
3.58797e-05
-1.59196e-05
7.37351e-07
-1.52882e-07
-0.000358136
0.000362673
1.5756e-07
6.57432e-07
-1.06288e-06
-8.89817e-06
5.38675e-07
-4.42379e-07
1.38866e-07
1.8984e-06
-8.12196e-08
0.00022776
-0.000114363
2.02638e-07
6.36376e-07
-6.68384e-07
9.7527e-08
-0.000363939
0.000364421
-2.91789e-06
4.73949e-06
6.96579e-08
4.8138e-07
-6.11151e-07
2.41391e-05
3.07527e-07
3.99486e-07
-3.91665e-06
2.74155e-06
-8.22426e-07
1.59181e-07
-3.01288e-05
0.000171764
7.10011e-07
-0.000205146
0.000175018
-3.05483e-07
-0.000156046
3.43968e-07
1.67278e-06
2.74662e-07
9.83145e-08
1.1063e-06
-1.20586e-06
-0.000151192
0.000216326
-2.28808e-05
8.56186e-06
4.25254e-07
7.65803e-07
-9.63954e-06
0.000478627
-0.000331692
-4.68583e-06
-8.56022e-05
-5.50883e-05
3.72666e-06
-3.44551e-07
-4.01951e-07
9.37778e-05
-4.99303e-07
1.42866e-07
-1.54218e-07
-0.000386062
0.000545957
-4.39567e-07
3.9453e-07
-0.000185051
0.000190817
-6.83272e-07
8.00458e-09
1.95869e-05
-1.95473e-06
1.04387e-07
-3.30634e-07
-6.64711e-07
-2.59431e-05
-4.76875e-07
6.98411e-07
0.000141063
-0.000174541
-4.33568e-05
1.39993e-06
-4.35782e-07
5.42096e-07
2.60037e-07
-2.49322e-08
0.000304883
-0.000211105
-3.55643e-07
4.24754e-07
4.06859e-06
-5.12057e-05
-8.79029e-07
2.63177e-07
-2.13947e-07
-4.56246e-07
3.59745e-07
-8.39935e-08
-6.18295e-08
6.65211e-07
-3.34522e-07
3.80443e-09
5.51698e-07
-3.86242e-07
-0.000580137
0.000104156
2.42134e-07
-1.66333e-07
-1.82083e-07
-3.17367e-08
-1.04994e-08
1.03499e-09
5.04588e-06
-1.07452e-08
-1.09959e-09
8.30143e-05
-9.2617e-07
9.06591e-05
5.71884e-07
-3.86507e-07
-4.84801e-07
8.48411e-07
-4.65057e-05
6.70722e-06
2.81345e-06
-2.45976e-06
1.47404e-07
-0.000216326
0.000206687
-1.53148e-06
1.93654e-06
3.7089e-07
5.06946e-08
-3.21269e-08
-1.00101e-07
-1.92044e-06
2.44392e-06
-0.000100894
-4.57016e-05
-0.000307412
7.58511e-05
-2.59463e-05