/*--------------------------------*- C++ -*----------------------------------*\
  =========                 |
  \\      /  F ield         | OpenFOAM: The Open Source CFD Toolbox
   \\    /   O peration     | Website:  https://openfoam.org
    \\  /    A nd           | Version:  8
     \\/     M anipulation  |
\*---------------------------------------------------------------------------*/
FoamFile
{
    version     2.0;
    format      ascii;
    class       volScalarField;
    location    "1";
    object      epsilon;
}
// * * * * * * * * * * * * * * * * * * * * * * * * * * * * * * * * * * * * * //

dimensions      [0 2 -3 0 0 0 0];

internalField   nonuniform List<scalar> 
1924
(
0.0206818
0.0316739
0.0696774
0.0828952
0.0329829
0.0836489
0.0902203
0.0914977
0.101568
0.0692645
0.103053
0.115648
0.028194
0.116678
0.130747
0.131113
0.0306976
0.12479
0.0178063
0.125549
0.0278866
0.0464098
0.025828
0.130014
0.0462504
0.0673849
0.0663284
0.0624237
0.0345241
0.0929743
0.0288883
0.053279
0.0180625
0.0293794
0.0603877
0.0222836
0.0552948
0.0418442
0.0954835
0.0313508
0.0608653
0.0284438
0.0634655
0.0245895
0.0706268
0.0275132
0.0275666
0.0810854
0.00758756
0.015149
0.0192549
0.0300189
0.0417028
0.0182217
0.0277681
0.0713605
0.0190418
0.0714603
0.0678995
0.0641866
0.0212941
0.127722
0.0221258
0.0857072
0.0166433
0.0817654
0.0909272
0.0264478
0.0318017
0.0209419
0.0332288
0.12783
0.0899275
0.0963827
0.105789
0.0415378
0.0911758
0.108464
0.0842234
0.020357
0.127477
0.0666966
0.0706446
0.0291197
0.0162369
0.0257023
0.0681047
0.130389
0.0091607
0.031195
0.0883645
0.0682841
0.0285644
0.0377233
0.0352586
0.0111051
0.0914882
0.128393
0.06346
0.0394898
0.0591405
0.0335476
0.0611516
0.0677147
0.0392844
0.124168
0.0446244
0.0445968
0.0674173
0.0307423
0.0949375
0.0330625
0.0457417
0.0763923
0.0922061
0.0240449
0.0675371
0.131379
0.0270003
0.0970301
0.0110146
0.00735428
0.0216687
0.0233019
0.113796
0.0428896
0.0435544
0.118503
0.0319695
0.0203553
0.1089
0.0559122
0.238671
0.0764449
0.0323936
0.0373071
0.0454696
0.0407203
0.130519
0.0543756
0.0774557
0.113913
0.195396
0.122604
0.0714073
0.00954895
0.0457587
0.0394067
0.0680507
0.026479
0.0687533
0.0143333
0.0434568
0.0594089
0.0825427
0.0429309
0.0075769
0.0545712
0.110099
0.492002
0.0835579
0.0383687
0.069448
0.00749204
0.0623948
0.0378826
0.0411808
0.00981881
0.103906
0.0339565
0.0246324
0.0838349
0.126469
0.0678184
0.0777259
0.046447
0.0843627
0.129521
0.0199229
0.0726896
0.0473458
0.129937
0.10074
0.0413246
0.00415105
0.0417238
0.0433185
0.0477719
0.109625
0.0881375
0.0468841
0.091648
0.120028
0.0829358
0.0433013
0.0149778
0.0488733
0.0458565
0.0477741
0.0441362
0.0601407
0.0403013
0.0393178
0.0929749
0.0310477
0.0482765
0.0839546
0.0413836
0.040218
0.305242
0.00795222
0.0405293
0.130385
0.043333
0.0488876
0.116711
0.0706674
0.047293
0.092621
0.121431
0.0468025
0.0710014
0.0398295
0.130708
0.103199
0.0500156
0.120564
0.129374
0.0483453
0.043231
0.137764
0.065758
0.0475567
0.172625
0.0504086
0.647515
0.128881
0.0940846
0.0466341
0.0160436
0.129813
0.0476416
0.128393
0.0414698
0.342101
0.0384036
0.104575
0.0841991
0.106631
0.12932
0.0516344
0.0103539
0.0479318
0.0419881
0.116016
0.129735
0.0678722
0.047225
0.0470401
0.104108
0.0442168
0.0467365
0.0689404
0.11256
0.0526827
0.111034
0.0259475
0.126758
0.0362423
0.05875
0.0415498
0.0687957
0.0250787
0.0513835
0.066239
0.125091
0.114624
0.0514934
0.0540763
0.0459018
0.0390584
0.0247409
0.0717717
0.0542045
0.0100288
0.0952924
0.127244
0.0142651
0.105446
0.0483522
0.0587144
0.0995458
0.0524018
0.126554
0.0153401
0.0623104
0.130054
0.0391493
0.125655
0.127015
0.0283407
0.0543937
0.124815
0.0711829
0.115919
0.0565883
0.0250965
0.124225
0.0482572
0.0731784
0.0380649
0.0249813
0.0537482
0.0402431
0.120624
0.0260167
0.044462
0.114761
0.0578321
0.0439618
0.106178
0.0408509
0.0682676
0.0660557
0.0625759
0.128299
0.0496584
0.0545117
0.0845958
0.128024
0.0455059
0.0908171
0.0385617
0.124685
0.121574
0.0534662
0.0655537
0.0708401
0.0665434
0.068081
0.128931
0.0729241
0.0449322
0.0409798
0.129178
0.128667
0.145148
0.113849
0.0266969
0.0614465
0.0606089
0.337244
0.242213
0.121385
0.0355132
0.129367
0.0027977
0.116011
0.0471377
0.00899208
0.0555325
0.125207
0.120798
0.0674007
0.0566278
0.081211
0.0428218
0.0393495
0.0661226
0.0696193
0.119463
0.0443859
0.0534347
0.126545
0.0706414
0.0790453
0.125614
0.129599
0.0499239
0.117795
0.128517
0.128888
0.0513922
0.0455532
0.0439464
0.11886
0.11723
0.0751176
0.0700523
0.0810976
0.300566
0.0387469
0.0523745
0.0911592
0.0864955
0.310701
0.0653412
0.0472354
0.129978
0.131532
0.0129785
0.127015
0.0393411
0.039473
0.0206524
0.066251
0.120975
0.098712
0.047753
0.0616121
0.0565556
0.0373
0.12474
0.0917209
0.0780344
0.0725186
0.124866
0.118904
0.0266539
0.0909095
0.1184
0.0391239
0.121492
0.0357073
0.0545636
0.11468
0.12556
0.0980021
0.0429723
0.0712879
0.0670779
0.12609
0.06914
0.0339223
0.0861083
0.0714787
0.114224
0.0226297
0.0927008
0.0511487
0.0438659
0.0694527
0.0459516
0.0466525
0.117352
0.748827
0.0601352
0.124257
0.0544875
0.0755167
0.129629
0.0411936
0.0475099
0.130374
0.0662859
0.0552093
0.116035
0.125067
0.033056
0.128787
0.12814
0.0469978
0.0252133
0.0296234
0.0394649
0.0799689
0.098338
0.0777495
0.102903
0.0802386
0.0587896
0.0378896
0.112334
0.117394
0.037847
0.129035
0.0918046
0.125328
0.118763
0.131575
0.0611864
0.0951401
0.0679387
0.101608
0.0451575
0.0545272
0.0719031
0.126248
0.0715427
0.127475
0.0237119
0.0718622
0.0364387
0.0916763
0.111052
0.120399
0.128291
0.0677705
0.0699876
0.0660947
0.111261
0.125462
0.0425073
0.0501341
0.0332137
0.0734974
0.117653
0.0634466
0.0417074
0.111626
0.128795
0.123024
0.0699639
0.0480822
0.080092
0.0837132
0.0480696
0.0572927
0.103736
0.131491
0.0347374
0.118196
0.125099
0.114265
0.0521944
0.0575543
0.120775
0.0192769
0.0579598
0.0876592
0.0318155
0.128167
0.039836
0.0227394
0.0375302
0.100936
0.0950696
0.038457
0.0265957
0.0524816
0.0456123
0.069694
0.0189191
0.12754
0.116949
0.0727699
0.100068
0.0840236
0.117898
0.129253
0.0718023
0.0686204
0.130037
0.0372918
0.0674845
0.0235503
0.0184563
0.0179686
0.0579526
0.0930431
0.0503007
0.0341528
0.0435215
0.0690037
0.0426406
0.0283189
0.127004
0.104009
0.106389
0.0435904
0.119221
0.0718101
0.0623298
0.0705465
0.124667
0.0837067
0.0196107
0.0366103
0.111909
0.0251511
0.0481644
0.128042
0.112379
0.072898
0.015503
0.0179326
0.110887
0.0257473
0.122282
0.073323
0.0548705
0.036207
0.0347585
0.0158825
0.0181431
0.111625
0.0867452
0.126052
0.102554
0.0309995
0.00863235
0.113613
0.0874305
0.0855571
0.0406741
0.128726
0.0592954
0.128153
0.0310786
0.0262686
0.0521808
0.12508
0.0206911
0.129556
0.04681
0.117873
0.0530752
0.036317
0.0109263
0.0748053
0.115772
0.124109
0.104773
0.0500881
0.103744
0.115997
0.0175624
0.126881
0.0594258
0.0222319
0.131251
0.0696541
0.129268
0.0289552
0.0386156
0.00881363
0.0662376
0.0504248
0.0725866
0.116727
0.0710788
0.0697354
0.0444795
0.0576843
0.0733399
0.118144
0.0491412
0.125149
0.0729252
0.0414246
0.035262
0.0705559
0.0581452
0.0606967
0.0182878
0.0735054
0.033148
0.128302
0.0543416
0.0233047
0.0275418
0.0169766
0.122387
0.120323
0.0761027
0.0874929
0.0516214
0.13031
0.0368163
0.0423654
0.0475598
0.12642
0.0231306
0.129463
0.122658
0.121568
0.113193
0.129837
0.0169316
0.020242
0.113465
0.11418
0.11643
0.101784
0.0510698
0.103803
0.0868
0.0333485
0.115974
0.0166198
0.0794762
0.0925885
0.116986
0.0601768
0.0347657
0.116377
0.0214332
0.126365
0.0459288
0.0501194
0.124455
0.0293312
0.0685877
0.0347205
0.0148365
0.070947
0.0717331
0.0569975
0.11606
0.0393023
0.0360388
0.0162819
0.0717524
0.0279398
0.0527816
0.0602933
0.0713514
0.0325896
0.117945
0.00619762
0.124533
0.126145
0.12732
0.0182537
0.13003
0.0503639
0.182548
0.0106337
0.0331463
0.11924
0.0726561
0.0235461
0.0627427
0.0487722
0.102216
0.0524819
0.089171
0.0729342
0.116124
0.0310828
0.0154842
0.0768872
0.125551
0.0198826
0.117804
0.116735
0.0429583
0.0193239
0.0376826
0.11995
0.0523416
0.073482
0.120797
0.0667463
0.0666969
0.0614497
0.0900518
0.0114954
0.0134767
0.123281
0.105333
0.0798696
0.124466
0.122664
0.0512513
0.0222664
0.0537371
0.0464566
0.0163342
0.0619903
0.129635
0.0593652
0.0580291
0.0725701
0.0357934
0.116371
0.0408564
0.0534523
0.0170028
0.0731898
0.0276177
0.126975
0.111135
0.0455146
0.130833
0.11353
0.128075
0.0704892
0.117317
0.0701267
0.023502
0.0338495
0.116758
0.0729617
0.0493002
0.12365
0.116448
0.0140679
0.0720871
0.0352238
0.0234322
0.0339562
0.0540823
0.084828
0.126421
0.123038
0.0723233
0.127652
0.0736964
0.0445923
0.118389
0.118416
0.0604927
0.0277944
0.0359638
0.0198853
0.115536
0.0153085
0.0533402
0.0296652
0.0312064
0.0699826
0.120696
0.0149783
0.0893182
0.118965
0.0476785
0.101588
0.0757276
0.021045
0.129376
0.125159
0.0375165
0.0545981
0.051755
0.0541823
0.125867
0.112243
0.121116
0.0218819
0.126803
0.0240075
0.0615063
0.0553246
0.00292039
0.0335541
0.0637202
0.0502221
0.122518
0.0349377
0.121271
0.0807974
0.0170512
0.126259
0.128697
0.0742774
0.0324772
0.0403248
0.0136536
0.11955
0.10199
0.121796
0.0740529
0.0982515
0.0273528
0.074172
0.0143431
0.0549625
0.018143
0.0246515
0.12196
0.0355031
0.0216288
0.111112
0.0437442
0.091257
0.125526
0.0225053
0.0147763
0.0722166
0.0832831
0.0361219
0.11932
0.107566
0.06798
0.0538841
0.0752953
0.12725
0.083684
0.0907303
0.0464656
0.123579
0.0127632
0.12255
0.117195
0.117266
0.117628
0.126678
0.0291283
0.127236
0.0216193
0.114452
0.0384565
0.00996034
0.0559353
0.0523976
0.118847
0.014351
0.0559234
0.119244
0.0548803
0.0842198
0.118116
0.0580984
0.010738
0.0771206
0.0150118
0.0560332
0.0419696
0.121351
0.117992
0.127998
0.0482933
0.0189519
0.119664
0.0226113
0.124218
0.0702145
0.126706
0.0638846
0.0450043
0.123599
0.0557376
0.0339736
0.0756589
0.0327265
0.112015
0.0348586
0.0662736
0.0798172
0.122036
0.0519918
0.120428
0.0181526
0.023618
0.0743384
0.0471544
0.0758169
0.0183269
0.127451
0.0310144
0.0543235
0.228228
0.0345793
0.100613
0.0254636
0.0217914
0.111039
0.0194329
0.118712
0.0470548
0.121866
0.034905
0.128993
0.0120246
0.0770308
0.121508
0.0497044
0.0557782
0.0130169
0.121577
0.0372126
0.118862
0.0563243
0.125837
0.0830339
0.0659661
0.0564115
0.0909586
0.0455535
0.125549
0.0584385
0.0266004
0.0402027
0.0571206
0.0845909
0.0484859
0.0531936
0.0718358
0.0346676
0.0402121
0.0788007
0.122653
0.0422536
0.0345973
0.120699
0.0333958
0.100945
0.10794
0.0221261
0.0559866
0.014702
0.0316077
0.114803
0.0337107
0.0305111
0.125962
0.130117
0.116939
0.0480287
0.0430519
0.0159223
0.122474
0.0740737
0.117406
0.118224
0.075035
0.066039
0.0348893
0.0511192
0.117167
0.119544
0.117318
0.0184323
0.120986
0.120531
0.0772418
0.0385139
0.0813109
0.0798267
0.080426
0.0394098
0.0280012
0.11895
0.0919601
0.00849803
0.00958385
0.0409933
0.130515
0.0605009
0.0495768
0.0206546
0.125837
0.129972
0.0865353
0.118969
0.0575773
0.12008
0.055628
0.0557903
0.0781874
0.0422359
0.118374
0.0191697
0.0435748
0.129024
0.126464
0.0571784
0.118701
0.0837632
0.0341218
0.0586072
0.0211705
0.0333877
0.0744693
0.0196722
0.120415
0.123271
0.0531043
0.120912
0.0120064
0.123416
0.0127997
0.0428371
0.0317862
0.0606437
0.0802471
0.0227339
0.114172
0.0318128
0.050878
0.301921
0.0725363
0.0365117
0.00681305
0.0169217
0.032845
0.119158
0.0674611
0.121159
0.0600569
0.0391403
0.107747
0.343315
0.259113
0.043899
0.0749338
0.124196
0.129444
0.0820542
0.0157936
0.0328213
0.0399878
0.0260495
0.372467
0.0568662
0.00653798
0.0202844
0.0558946
0.0988077
0.0573478
0.0170336
0.0917438
0.0238545
0.0259848
0.126918
0.0184913
0.0431108
0.115747
0.0310949
0.0555146
0.0564647
0.016476
0.117394
0.116243
0.116739
0.045588
0.0775648
0.0302238
0.380901
0.119394
0.109026
0.0870863
0.122318
0.0341144
0.0334734
0.0529356
0.117435
0.118269
0.0101166
0.0373408
0.113635
0.0428396
0.00904261
0.0171925
0.0394314
0.400747
0.0445237
0.0386921
0.23013
0.0157609
0.0794627
0.119086
0.121621
0.102798
0.120678
0.11588
0.0185892
0.0844224
0.0471306
0.0625104
0.0591194
0.0412138
0.402002
0.0432496
0.0239313
0.0119535
0.0640499
0.117585
0.0384453
0.115694
0.0311259
0.0218701
0.0134259
0.129327
0.0989841
0.0685398
0.0505127
0.0879944
0.0923034
0.0878468
0.0172787
0.118055
0.0273795
0.055819
0.0305946
0.0210024
0.0386298
0.0559515
0.0570003
0.39815
0.0277155
0.0564217
0.0532732
0.213321
0.107097
0.0117337
0.0555037
0.0270303
0.0141142
0.0853063
0.119743
0.0725176
0.0321785
0.081725
0.0317941
0.0466516
0.0163513
0.118021
0.102136
0.0338875
0.116401
0.0167741
0.116163
0.0442679
0.0386936
0.110201
0.0374557
0.114972
0.0234671
0.0431963
0.0561642
0.0438453
0.0352342
0.0423569
0.12039
0.0170828
0.013575
0.00649224
0.392534
0.115681
0.0376958
0.0565446
0.114339
0.101933
0.0963825
0.10643
0.0306167
0.0823145
0.0300775
0.116049
0.0959532
0.0759648
0.0103879
0.00954754
0.117185
0.0349417
0.0578183
0.0253568
0.109564
0.0561965
0.0246721
0.0957927
0.0278097
0.0870039
0.213949
0.116359
0.029476
0.0257064
0.0590793
0.0906753
0.0295763
0.0419975
0.025243
0.0370448
0.0138221
0.0216827
0.0320783
0.0284315
0.113824
0.0567693
0.117155
0.0135367
0.0170899
0.115777
0.0511284
0.116551
0.0568466
0.0262283
0.0151047
0.0104017
0.0841082
0.0945889
0.0214832
0.0907066
0.386342
0.0556599
0.111274
0.0639725
0.0463706
0.0916669
0.0334281
0.0867873
0.0128676
0.0768931
0.0125738
0.0983643
0.109218
0.0532428
0.0341799
0.548915
0.0554441
0.0373045
0.011182
0.116084
0.0873956
0.116295
0.0832547
0.637927
0.0285639
0.101187
0.12308
0.710793
0.0142013
0.0360855
0.113552
0.0919331
0.0126097
0.0913151
0.0685991
0.0180182
0.0944189
0.0838152
0.0871034
0.0329777
0.0515182
0.472456
0.0912628
0.11284
0.018062
0.079421
0.116889
0.023293
0.0516076
0.0536905
0.0155029
0.114267
0.0160687
0.114839
0.775934
0.79243
0.0172629
0.0265588
0.0865119
0.0382765
0.0533452
0.0832296
0.111849
0.0781366
0.0342477
0.0978763
0.113508
0.0258763
0.804117
0.0832654
0.102492
0.382003
0.0147693
0.0178142
0.011645
0.0164618
0.0822295
0.010136
0.0549141
0.110667
0.0562994
0.0801813
0.110079
0.0544867
0.0333892
0.0497989
0.415749
0.433609
0.115461
0.100436
0.0125779
0.800669
0.055882
0.0131302
0.0515691
0.0687385
0.0107442
0.0688261
0.0711591
0.0227367
0.0201703
0.0196106
0.0681087
0.112948
0.0243118
0.0790662
0.0378298
0.182011
0.073275
0.0800198
0.0739174
0.115058
0.00982366
0.0700616
0.032965
0.00894453
0.0794537
0.0858906
0.0254886
0.791062
0.0699608
0.0532898
0.0151144
0.0702778
0.0539968
0.0883781
0.0359307
0.0925319
0.0600519
0.0360118
0.0467056
0.068349
0.0905797
0.0276966
0.0747304
0.111933
0.0490447
0.0155251
0.044363
0.0356879
0.0110282
0.0688308
0.113336
0.111973
0.0463138
0.0337344
0.0733922
0.0096453
0.076621
0.063451
0.779456
0.112735
0.102321
0.0124718
0.247472
0.113821
0.0751985
0.093699
0.101629
0.0498378
0.0692533
0.0498225
0.0561156
0.0651974
0.0660768
0.113157
0.380556
0.0856566
0.111166
0.109058
0.0661882
0.0902123
0.0545044
0.0552549
0.0606798
0.0461379
0.0327959
0.0879834
0.0513738
0.391547
0.0508989
0.114319
0.0551872
0.111721
0.0453735
0.0920501
0.015238
0.108599
0.00996341
0.11219
0.0109341
0.0675446
0.0277553
0.270677
0.276651
0.767499
0.0430811
0.0234742
0.0481138
0.0714342
0.00964466
0.0272052
0.0373073
0.0167137
0.0412489
0.110489
0.111498
0.0161483
0.110173
0.109388
0.0486108
0.0590642
0.0118732
0.0432718
0.0519874
0.0707532
0.047084
0.0368284
0.0134143
0.111634
0.0690282
0.0406127
0.0531639
0.109168
0.055682
0.0101774
0.129318
0.0936621
0.0754006
0.133206
0.0475792
0.12713
0.0420154
0.10113
0.138093
0.0619137
0.252018
0.145034
0.0466108
0.106404
0.0277504
0.135264
0.130623
0.0557805
0.0358654
0.0452962
0.101055
0.03322
0.0497877
0.0929393
0.0442564
0.0153646
0.0139508
0.128303
0.0499012
0.0666746
0.0355983
0.281333
0.0511973
0.0177621
0.271948
0.0542276
0.0409577
0.276778
0.0268891
0.014502
0.0108083
0.124075
0.282138
0.0501938
0.0428814
0.10693
0.0501664
0.0449762
0.107341
0.0550685
0.130389
0.130711
0.0680985
0.0349449
0.124186
0.106567
0.0675127
0.0480924
0.0322174
0.0286998
0.407673
0.469245
0.23485
0.0140493
0.109691
0.10644
0.0426377
0.0380865
0.11055
0.103779
0.0540585
0.109236
0.0525566
0.108543
0.107512
0.10329
0.044598
0.0325215
0.108584
0.126931
0.109245
0.0321577
0.188283
0.0194137
0.106582
0.0539891
0.0457209
0.0355597
0.355666
0.0298664
0.0297821
0.0321693
0.365326
0.0443768
0.104751
0.100139
0.0547494
0.107923
0.03928
0.279239
0.0516555
0.743346
0.736486
0.112142
0.0656877
0.0604133
0.34099
0.0506979
0.109381
0.0312786
0.0997914
0.0468342
0.0927968
0.00665337
0.107224
0.124933
0.0379745
0.0522057
0.555767
0.0490171
0.103649
0.035757
0.0284474
0.514795
0.0534469
0.442866
0.217409
0.104564
0.108918
0.528464
0.328498
0.0530998
0.543917
0.110743
0.0385875
0.0588379
0.0467762
0.091947
0.0451949
0.352004
0.0342271
0.105895
0.0402694
0.0340982
0.103205
0.00653339
0.0625994
0.102846
0.104018
0.105609
0.0375859
0.0306192
0.558972
0.103248
0.0994419
0.0517861
0.104905
0.0501541
0.100028
0.0132003
0.0230937
0.0383924
0.106415
0.0995977
0.0116585
0.0428673
0.0836292
0.434861
0.0989713
0.0923992
0.0878338
0.102179
0.0688429
0.126179
0.0369229
0.0446311
0.0508774
0.0453377
0.677077
0.648069
0.0293778
0.315437
0.10403
0.0891485
0.0391682
0.0129401
0.0465414
0.0982133
0.0462893
0.0119571
0.0166466
0.0988394
0.0368335
0.099709
0.278354
0.555652
0.0981595
0.101878
0.0513434
0.0988468
0.036313
0.0948296
0.101033
0.0876231
0.61495
0.0446636
0.35897
0.0281442
0.157905
0.0952206
0.146289
0.194723
0.403581
0.0966684
0.70079
0.0972842
0.302375
0.0427948
0.0912869
0.161953
0.0915717
0.0396428
0.0704762
0.0747238
0.139631
0.0921006
0.0381121
0.0917491
0.154498
0.0354328
0.0956097
0.0881631
0.576214
0.553319
0.278135
0.278955
0.164655
0.29014
0.258354
0.153501
0.0875302
0.0906635
0.0934908
0.0388402
0.525551
0.167636
0.117319
0.0366167
0.0882387
0.0833724
0.0416336
0.0907893
0.092417
0.0415413
0.398077
0.256245
0.0397749
0.717264
0.243503
0.293846
0.162521
0.07631
0.0817981
0.00940857
0.00544452
0.156301
0.0048482
0.192069
0.0150962
0.130557
0.0780108
0.35416
0.0716875
0.127206
0.127513
0.0790345
0.134942
0.120126
0.0652119
0.279012
0.540476
0.553691
0.495667
0.271634
0.552013
0.279868
0.285297
0.149481
0.102357
0.0741661
0.113714
0.124542
0.0695379
0.5538
0.0753476
0.100155
0.0868998
0.0903203
0.089319
0.0250279
0.0349516
0.0265526
0.0132482
0.0279549
0.022212
0.0112702
0.0335277
0.00996114
0.0115983
0.0266338
0.00969025
0.104214
0.0251527
0.115186
0.0270003
0.0746178
0.0346237
0.00290181
0.0324385
0.0377981
0.0481409
0.0207654
0.0422582
0.0273195
0.0173282
0.0172254
0.0221452
0.0115169
0.0319872
0.0112892
0.0156687
0.0126107
0.0490311
0.066782
0.0175794
0.0169393
0.0058992
0.00795286
0.0365207
0.0406713
0.0320557
0.0184912
0.0391309
0.0357766
0.0161278
0.0206298
0.0306334
0.0119388
0.111527
0.00831809
0.00255366
0.00837398
0.0136157
0.0125086
0.00660961
0.0132018
0.00790407
0.0074146
0.00699054
0.00704941
0.00798301
0.0465948
0.0395726
0.0064637
0.116692
0.0138555
0.0141118
0.0353985
0.00545159
0.0195225
0.0140061
0.0378696
0.00546062
0.0227524
0.0206109
0.00955168
0.0194217
0.00645748
0.0109552
0.0103939
0.122265
0.0164066
0.0370862
0.0208615
0.0049181
0.127956
0.0048815
0.0214608
0.0107094
0.0216882
0.0353801
0.130296
0.00304462
0.00974171
0.00931631
0.035131
0.128374
0.01089
0.123055
0.0330603
0.00890574
0.0331837
0.127215
0.0114075
0.030886
0.0116475
0.00918413
0.00845632
0.0158309
0.0296468
0.00824387
0.0147702
0.129815
)
;

boundaryField
{
    patch0
    {
        type            epsilonWallFunction;
        value           nonuniform List<scalar> 
4010
(
0.0206818
0.0206818
0.0316739
0.0316739
0.0696774
0.0696774
0.0828952
0.0828952
0.0329829
0.0329829
0.0836489
0.0836489
0.0902203
0.0902203
0.0914977
0.0914977
0.101568
0.101568
0.0692645
0.0692645
0.103053
0.103053
0.115648
0.115648
0.028194
0.028194
0.116678
0.116678
0.130747
0.130747
0.131113
0.131113
0.0306976
0.0306976
0.12479
0.12479
0.0178063
0.0178063
0.125549
0.125549
0.0278866
0.0278866
0.0464098
0.0464098
0.025828
0.025828
0.130014
0.130014
0.0462504
0.0462504
0.0673849
0.0673849
0.0663284
0.0663284
0.0624237
0.0624237
0.0345241
0.0345241
0.0929743
0.0929743
0.0288883
0.0288883
0.053279
0.053279
0.0180625
0.0180625
0.0293794
0.0293794
0.0603877
0.0603877
0.0222836
0.0222836
0.0552948
0.0552948
0.0418442
0.0418442
0.0954835
0.0954835
0.0313508
0.0313508
0.0608653
0.0608653
0.0284438
0.0284438
0.0634655
0.0634655
0.0245895
0.0245895
0.0706268
0.0706268
0.0275132
0.0275132
0.0275666
0.0275666
0.0810854
0.0810854
0.00758756
0.00758756
0.015149
0.015149
0.0192549
0.0192549
0.0300189
0.0300189
0.0417028
0.0417028
0.0182217
0.0182217
0.0277681
0.0277681
0.0713605
0.0713605
0.0190418
0.0190418
0.0714603
0.0714603
0.0678995
0.0678995
0.0641866
0.0641866
0.0212941
0.0212941
0.127722
0.127722
0.0221258
0.0221258
0.0857072
0.0857072
0.0166433
0.0166433
0.0817654
0.0817654
0.0909272
0.0909272
0.0264478
0.0264478
0.0318017
0.0318017
0.0209419
0.0209419
0.0332288
0.0332288
0.12783
0.12783
0.0899275
0.0899275
0.0963827
0.0963827
0.105789
0.105789
0.0415378
0.0415378
0.0911758
0.0911758
0.108464
0.108464
0.0842234
0.0842234
0.020357
0.020357
0.127477
0.127477
0.0666966
0.0666966
0.0706446
0.0706446
0.0291197
0.0291197
0.0162369
0.0162369
0.0257023
0.0257023
0.0681047
0.0681047
0.130389
0.130389
0.0091607
0.0091607
0.031195
0.031195
0.0883645
0.0883645
0.0682841
0.0682841
0.0285644
0.0285644
0.0377233
0.0377233
0.0352586
0.0352586
0.0111051
0.0111051
0.0914882
0.0914882
0.128393
0.128393
0.06346
0.06346
0.0394898
0.0394898
0.0591405
0.0591405
0.0335476
0.0335476
0.0611516
0.0611516
0.0677147
0.0677147
0.0392844
0.0392844
0.124168
0.124168
0.0446244
0.0446244
0.0445968
0.0445968
0.0674173
0.0674173
0.0307423
0.0307423
0.0949375
0.0949375
0.0330625
0.0330625
0.0457417
0.0457417
0.0763923
0.0763923
0.0922061
0.0922061
0.0240449
0.0240449
0.0675371
0.0675371
0.131379
0.131379
0.0270003
0.0270003
0.0970301
0.0970301
0.0110146
0.0110146
0.00735428
0.00735428
0.0216687
0.0216687
0.0233019
0.0233019
0.113796
0.113796
0.0428896
0.0428896
0.0435544
0.0435544
0.118503
0.118503
0.0319695
0.0319695
0.0203553
0.0203553
0.1089
0.1089
0.0559122
0.0559122
0.238671
0.238671
0.0764449
0.0764449
0.0323936
0.0323936
0.0373071
0.0373071
0.0454696
0.0454696
0.0407203
0.0407203
0.130519
0.130519
0.0543756
0.0543756
0.0774557
0.0774557
0.113913
0.113913
0.195396
0.195396
0.195396
0.122604
0.122604
0.122604
0.0714073
0.0714073
0.00954895
0.00954895
0.0457587
0.0457587
0.0394067
0.0394067
0.0680507
0.0680507
0.026479
0.026479
0.0687533
0.0687533
0.0143333
0.0143333
0.0143333
0.0434568
0.0434568
0.0594089
0.0594089
0.0825427
0.0825427
0.0429309
0.0429309
0.0075769
0.0075769
0.0545712
0.0545712
0.110099
0.110099
0.492002
0.492002
0.0835579
0.0835579
0.0383687
0.0383687
0.069448
0.069448
0.00749204
0.00749204
0.0623948
0.0623948
0.0378826
0.0378826
0.0411808
0.0411808
0.00981881
0.00981881
0.103906
0.103906
0.0339565
0.0339565
0.0246324
0.0246324
0.0838349
0.0838349
0.126469
0.126469
0.0678184
0.0678184
0.0777259
0.0777259
0.046447
0.046447
0.0843627
0.0843627
0.129521
0.129521
0.0199229
0.0199229
0.0726896
0.0726896
0.0473458
0.0473458
0.129937
0.129937
0.10074
0.10074
0.0413246
0.0413246
0.00415105
0.00415105
0.0417238
0.0417238
0.0433185
0.0433185
0.0477719
0.0477719
0.109625
0.109625
0.0881375
0.0881375
0.0468841
0.0468841
0.091648
0.091648
0.120028
0.120028
0.0829358
0.0829358
0.0433013
0.0433013
0.0149778
0.0149778
0.0149778
0.0488733
0.0488733
0.0458565
0.0458565
0.0477741
0.0477741
0.0441362
0.0441362
0.0601407
0.0601407
0.0403013
0.0403013
0.0393178
0.0393178
0.0929749
0.0929749
0.0310477
0.0310477
0.0482765
0.0482765
0.0839546
0.0839546
0.0413836
0.0413836
0.040218
0.040218
0.305242
0.305242
0.305242
0.00795222
0.00795222
0.0405293
0.0405293
0.130385
0.130385
0.043333
0.043333
0.0488876
0.0488876
0.116711
0.116711
0.0706674
0.0706674
0.047293
0.047293
0.092621
0.092621
0.121431
0.121431
0.0468025
0.0468025
0.0710014
0.0710014
0.0398295
0.0398295
0.130708
0.130708
0.103199
0.103199
0.0500156
0.0500156
0.120564
0.120564
0.129374
0.129374
0.0483453
0.0483453
0.043231
0.043231
0.137764
0.137764
0.065758
0.065758
0.0475567
0.0475567
0.172625
0.172625
0.0504086
0.0504086
0.647515
0.647515
0.647515
0.128881
0.128881
0.0940846
0.0940846
0.0466341
0.0466341
0.0160436
0.0160436
0.0160436
0.129813
0.129813
0.0476416
0.0476416
0.128393
0.128393
0.0414698
0.0414698
0.342101
0.342101
0.0384036
0.0384036
0.104575
0.104575
0.0841991
0.0841991
0.106631
0.106631
0.12932
0.12932
0.0516344
0.0516344
0.0103539
0.0103539
0.0479318
0.0479318
0.0419881
0.0419881
0.116016
0.116016
0.129735
0.129735
0.0678722
0.0678722
0.047225
0.047225
0.0470401
0.0470401
0.104108
0.104108
0.0442168
0.0442168
0.0467365
0.0467365
0.0689404
0.0689404
0.11256
0.11256
0.0526827
0.0526827
0.111034
0.111034
0.0259475
0.0259475
0.126758
0.126758
0.0362423
0.0362423
0.05875
0.05875
0.0415498
0.0415498
0.0687957
0.0687957
0.0250787
0.0250787
0.0513835
0.0513835
0.066239
0.066239
0.125091
0.125091
0.114624
0.114624
0.0514934
0.0514934
0.0540763
0.0540763
0.0459018
0.0459018
0.0390584
0.0390584
0.0247409
0.0247409
0.0247409
0.0717717
0.0717717
0.0542045
0.0542045
0.0100288
0.0100288
0.0952924
0.0952924
0.127244
0.127244
0.0142651
0.0142651
0.105446
0.105446
0.0483522
0.0483522
0.0587144
0.0587144
0.0995458
0.0995458
0.0524018
0.0524018
0.126554
0.126554
0.0153401
0.0153401
0.0623104
0.0623104
0.130054
0.130054
0.0391493
0.0391493
0.125655
0.125655
0.127015
0.127015
0.0283407
0.0283407
0.0283407
0.0543937
0.0543937
0.124815
0.124815
0.0711829
0.0711829
0.115919
0.115919
0.0565883
0.0565883
0.0250965
0.0250965
0.124225
0.124225
0.0482572
0.0482572
0.0731784
0.0731784
0.0380649
0.0380649
0.0249813
0.0249813
0.0537482
0.0537482
0.0402431
0.0402431
0.120624
0.120624
0.0260167
0.0260167
0.044462
0.044462
0.114761
0.114761
0.0578321
0.0578321
0.0439618
0.0439618
0.106178
0.106178
0.0408509
0.0408509
0.0682676
0.0682676
0.0660557
0.0660557
0.0625759
0.0625759
0.128299
0.128299
0.0496584
0.0496584
0.0545117
0.0545117
0.0845958
0.0845958
0.128024
0.128024
0.0455059
0.0455059
0.0908171
0.0908171
0.0385617
0.0385617
0.124685
0.124685
0.121574
0.121574
0.0534662
0.0534662
0.0655537
0.0655537
0.0708401
0.0708401
0.0665434
0.0665434
0.068081
0.068081
0.128931
0.128931
0.0729241
0.0729241
0.0449322
0.0449322
0.0409798
0.0409798
0.129178
0.129178
0.128667
0.128667
0.145148
0.145148
0.113849
0.113849
0.0266969
0.0266969
0.0614465
0.0614465
0.0606089
0.0606089
0.337244
0.337244
0.242213
0.242213
0.121385
0.121385
0.0355132
0.0355132
0.129367
0.129367
0.0027977
0.0027977
0.116011
0.116011
0.0471377
0.0471377
0.00899208
0.00899208
0.0555325
0.0555325
0.125207
0.125207
0.120798
0.120798
0.0674007
0.0674007
0.0566278
0.0566278
0.081211
0.081211
0.0428218
0.0428218
0.0393495
0.0393495
0.0661226
0.0661226
0.0696193
0.0696193
0.119463
0.119463
0.0443859
0.0443859
0.0534347
0.0534347
0.126545
0.126545
0.0706414
0.0706414
0.0790453
0.0790453
0.125614
0.125614
0.129599
0.129599
0.0499239
0.0499239
0.117795
0.117795
0.128517
0.128517
0.128888
0.128888
0.0513922
0.0513922
0.0455532
0.0455532
0.0439464
0.0439464
0.11886
0.11886
0.11723
0.11723
0.0751176
0.0751176
0.0700523
0.0700523
0.0810976
0.0810976
0.300566
0.300566
0.0387469
0.0387469
0.0523745
0.0523745
0.0911592
0.0911592
0.0864955
0.0864955
0.310701
0.310701
0.310701
0.0653412
0.0653412
0.0472354
0.0472354
0.129978
0.129978
0.131532
0.131532
0.0129785
0.0129785
0.127015
0.127015
0.0393411
0.0393411
0.039473
0.039473
0.0206524
0.0206524
0.0206524
0.066251
0.066251
0.120975
0.120975
0.098712
0.098712
0.047753
0.047753
0.0616121
0.0616121
0.0565556
0.0565556
0.0373
0.0373
0.12474
0.12474
0.0917209
0.0917209
0.0780344
0.0780344
0.0725186
0.0725186
0.124866
0.124866
0.118904
0.118904
0.0266539
0.0266539
0.0909095
0.0909095
0.1184
0.1184
0.0391239
0.0391239
0.121492
0.121492
0.0357073
0.0357073
0.0545636
0.0545636
0.11468
0.11468
0.12556
0.12556
0.0980021
0.0980021
0.0429723
0.0429723
0.0712879
0.0712879
0.0670779
0.0670779
0.12609
0.12609
0.06914
0.06914
0.0339223
0.0339223
0.0861083
0.0861083
0.0714787
0.0714787
0.114224
0.114224
0.0226297
0.0226297
0.0927008
0.0927008
0.0511487
0.0511487
0.0438659
0.0438659
0.0694527
0.0694527
0.0459516
0.0459516
0.0466525
0.0466525
0.117352
0.117352
0.748827
0.748827
0.748827
0.0601352
0.0601352
0.124257
0.124257
0.0544875
0.0544875
0.0755167
0.0755167
0.129629
0.129629
0.0411936
0.0411936
0.0475099
0.0475099
0.130374
0.130374
0.0662859
0.0662859
0.0552093
0.0552093
0.116035
0.116035
0.125067
0.125067
0.033056
0.033056
0.128787
0.128787
0.12814
0.12814
0.0469978
0.0469978
0.0252133
0.0252133
0.0296234
0.0296234
0.0394649
0.0394649
0.0799689
0.0799689
0.098338
0.098338
0.0777495
0.0777495
0.102903
0.102903
0.0802386
0.0802386
0.0587896
0.0587896
0.0378896
0.0378896
0.112334
0.112334
0.117394
0.117394
0.037847
0.037847
0.129035
0.129035
0.0918046
0.0918046
0.125328
0.125328
0.118763
0.118763
0.131575
0.131575
0.0611864
0.0611864
0.0951401
0.0951401
0.0679387
0.0679387
0.101608
0.101608
0.0451575
0.0451575
0.0545272
0.0545272
0.0719031
0.0719031
0.126248
0.126248
0.0715427
0.0715427
0.127475
0.127475
0.0237119
0.0237119
0.0718622
0.0718622
0.0364387
0.0364387
0.0916763
0.0916763
0.111052
0.111052
0.120399
0.120399
0.128291
0.128291
0.0677705
0.0677705
0.0699876
0.0699876
0.0660947
0.0660947
0.111261
0.111261
0.125462
0.125462
0.0425073
0.0425073
0.0501341
0.0501341
0.0332137
0.0332137
0.0734974
0.0734974
0.117653
0.117653
0.0634466
0.0634466
0.0417074
0.0417074
0.111626
0.111626
0.128795
0.128795
0.123024
0.123024
0.0699639
0.0699639
0.0480822
0.0480822
0.080092
0.080092
0.0837132
0.0837132
0.0480696
0.0480696
0.0572927
0.0572927
0.103736
0.103736
0.131491
0.131491
0.0347374
0.0347374
0.118196
0.118196
0.125099
0.125099
0.114265
0.114265
0.0521944
0.0521944
0.0575543
0.0575543
0.120775
0.120775
0.0192769
0.0192769
0.0579598
0.0579598
0.0876592
0.0876592
0.0318155
0.0318155
0.128167
0.128167
0.039836
0.039836
0.0227394
0.0227394
0.0375302
0.0375302
0.100936
0.100936
0.0950696
0.0950696
0.038457
0.038457
0.0265957
0.0265957
0.0524816
0.0524816
0.0456123
0.0456123
0.069694
0.069694
0.0189191
0.0189191
0.12754
0.12754
0.116949
0.116949
0.0727699
0.0727699
0.100068
0.100068