/*--------------------------------*- C++ -*----------------------------------*\
  =========                 |
  \\      /  F ield         | OpenFOAM: The Open Source CFD Toolbox
   \\    /   O peration     | Website:  https://openfoam.org
    \\  /    A nd           | Version:  8
     \\/     M anipulation  |
\*---------------------------------------------------------------------------*/
FoamFile
{
    version     2.0;
    format      ascii;
    class       volScalarField;
    location    "1";
    object      k;
}
// * * * * * * * * * * * * * * * * * * * * * * * * * * * * * * * * * * * * * //

dimensions      [0 2 -2 0 0 0 0];

internalField   nonuniform List<scalar> 
1924
(
0.0187974
0.0251067
0.0423317
0.0474387
0.02572
0.0477422
0.0502
0.0506792
0.0543255
0.0421678
0.0548546
0.0592385
0.0230633
0.059589
0.0643432
0.0644694
0.0244064
0.0623403
0.0170177
0.0625951
0.022919
0.032201
0.0217167
0.0640707
0.032133
0.0412327
0.0408302
0.03941
0.0265381
0.0513509
0.0234014
0.0352808
0.0171545
0.0236973
0.0385663
0.0196779
0.0361637
0.0301777
0.0523398
0.0247446
0.038509
0.023208
0.0396047
0.0210094
0.0425883
0.0227368
0.0229153
0.0467209
0.00963558
0.0152796
0.0179046
0.0240451
0.0299928
0.0172705
0.0228273
0.0429844
0.0178464
0.0429326
0.0415885
0.0399946
0.0191004
0.0633526
0.0196122
0.0486581
0.0162671
0.0469843
0.0504731
0.0220452
0.0251102
0.0189248
0.0257788
0.0634012
0.0502003
0.0526341
0.0560709
0.0299319
0.0505665
0.0570133
0.0479235
0.0185628
0.0631698
0.0409967
0.0426457
0.0235601
0.0160034
0.0216723
0.0416748
0.0642231
0.0109258
0.0246698
0.0495222
0.0416687
0.023285
0.028038
0.0267704
0.012434
0.0506771
0.0634784
0.039694
0.028924
0.0379427
0.0258938
0.0387063
0.0414596
0.028814
0.0622924
0.0314491
0.0313692
0.0413431
0.0244759
0.0519541
0.0257501
0.0320373
0.0450345
0.0509524
0.0207395
0.0414588
0.064568
0.0224481
0.0527308
0.0123529
0.00496508
0.0193905
0.0203098
0.0586748
0.030583
0.0308596
0.0604601
0.025154
0.00929467
0.0570078
0.036541
0.0228416
0.0450096
0.0252862
0.0278593
0.0318752
0.029603
0.0642434
0.0359703
0.0453748
0.0587058
0.0171911
0.0124683
0.0429916
0.0112318
0.0319058
0.0288613
0.0415921
0.0221851
0.0419245
0.00488054
0.0307833
0.0380271
0.0473423
0.0306151
0.0050646
0.0359809
0.0574063
0.036918
0.0478208
0.0284138
0.0422019
0.00502694
0.0392709
0.0281559
0.0297931
0.0050049
0.0552575
0.0261962
0.0211093
0.0478218
0.0630165
0.0415036
0.0454748
0.0321829
0.0481519
0.0240961
0.0182919
0.0434732
0.032614
0.0640884
0.0541672
0.0298629
0.00644392
0.0301585
0.0307069
0.0328054
0.0572868
0.0495088
0.0324007
0.0507438
0.060865
0.0474879
0.0308312
0.00502591
0.0333052
0.0319109
0.032799
0.031105
0.013872
0.0295429
0.0288789
0.0512324
0.0246768
0.0330266
0.0478724
0.0297612
0.0292347
0.0222048
0.00523125
0.029492
0.064206
0.0308443
0.0333044
0.0598467
0.0426537
0.0325882
0.0510826
0.0614223
0.0323946
0.0427439
0.0291372
0.0643189
0.0548929
0.0338155
0.0610213
0.0638856
0.0332202
0.0306813
0.0197861
0.0406099
0.0326944
0.0267401
0.0339971
0.0368804
0.0636933
0.0516179
0.0323915
0.00526246
0.06405
0.032739
0.0635271
0.0298226
0.0363706
0.0283242
0.0553849
0.047967
0.0563225
0.0638737
0.0346764
0.00562587
0.0330186
0.0301944
0.0595405
0.064004
0.0414341
0.0325557
0.0325015
0.0552051
0.0312239
0.0324564
0.0419671
0.0584052
0.0350185
0.057963
0.021837
0.0630987
0.0273158
0.0137781
0.0298808
0.0419737
0.0213665
0.034437
0.0408178
0.0623776
0.0588619
0.0344804
0.0357016
0.0319295
0.0114245
0.00560679
0.0430734
0.0358745
0.0115943
0.0521862
0.0632437
0.00685435
0.0556837
0.0330739
0.0377939
0.0538591
0.03488
0.0629249
0.015383
0.0392641
0.064116
0.0286794
0.0627484
0.0630836
0.00747878
0.0358723
0.0623072
0.0428492
0.0593111
0.0367217
0.0213477
0.0621057
0.0330419
0.0436032
0.0281546
0.0213548
0.0356539
0.0292997
0.061083
0.0218654
0.0313304
0.0589055
0.0374339
0.0311063
0.0562592
0.0295508
0.0416962
0.0408695
0.0392643
0.063462
0.033665
0.0358164
0.0481122
0.0634786
0.0317587
0.0504482
0.0284793
0.0622915
0.061456
0.0353498
0.0405485
0.0428358
0.0410601
0.0416581
0.0636811
0.0437012
0.0315336
0.0296062
0.06383
0.0636887
0.0196262
0.0587067
0.0223257
0.0387749
0.0383994
0.0346161
0.0365041
0.0611678
0.0268706
0.0638671
0.0049487
0.0593434
0.032526
0.0108068
0.0362417
0.0624915
0.0609657
0.041306
0.0367204
0.0468253
0.0305512
0.0288217
0.0408702
0.0423465
0.0604954
0.0312934
0.0353363
0.0629557
0.0426046
0.0173363
0.0626323
0.0639681
0.0338065
0.0600532
0.0636537
0.0637266
0.0344421
0.0318562
0.0310273
0.0602953
0.0600459
0.0443957
0.0423325
0.0467953
0.0387077
0.0285727
0.0348786
0.0505971
0.048855
0.0202368
0.040377
0.0326055
0.0640605
0.0646283
0.0137956
0.0631496
0.0288035
0.0289169
0.00400682
0.0408407
0.0610031
0.0533775
0.0328198
0.0388296
0.0366949
0.0278551
0.0623093
0.0507528
0.0456243
0.0433696
0.0623231
0.0603492
0.0222376
0.0504746
0.0601717
0.0287253
0.0611906
0.0269945
0.0358349
0.0588836
0.0627224
0.0532902
0.0306245
0.04289
0.0411803
0.0627388
0.0420466
0.0261334
0.0487116
0.0429525
0.0587369
0.0199493
0.0511223
0.0343592
0.0309988
0.0420729
0.0320278
0.032315
0.0599293
0.0365819
0.0382277
0.0622739
0.0358128
0.044574
0.0639811
0.0297813
0.0327608
0.0641848
0.0407764
0.0361289
0.0593644
0.0624557
0.025699
0.0637622
0.0634146
0.0325007
0.0214151
0.0239109
0.0288828
0.0463351
0.0532644
0.0455033
0.0547853
0.0464155
0.0376412
0.0281589
0.0583957
0.05985
0.0280983
0.063731
0.0508991
0.0625149
0.0604347
0.0646504
0.0386902
0.0520412
0.0415421
0.054462
0.0316642
0.0358341
0.0430872
0.0628634
0.0430024
0.0633198
0.0205645
0.0431197
0.027432
0.0507519
0.0576617
0.0608397
0.0636195
0.0414669
0.0423048
0.0408971
0.0577324
0.0625961
0.0303541
0.0339167
0.0257202
0.0437408
0.0599348
0.0395924
0.0300328
0.0578946
0.0636718
0.0617352
0.0423581
0.033003
0.0463981
0.0477973
0.0330067
0.0370418
0.0550898
0.0646354
0.0265687
0.0601362
0.0624192
0.0587939
0.0348218
0.0371585
0.061143
0.0178864
0.0373085
0.0492835
0.0250676
0.0634714
0.0291293
0.0199966
0.0279184
0.0542381
0.0520214
0.0284121
0.0221629
0.0349601
0.0318808
0.0424186
0.0176787
0.0632864
0.0597311
0.0434496
0.0540664
0.0479992
0.0601696
0.0637692
0.0430482
0.0418154
0.0641268
0.0278661
0.0412872
0.0204799
0.0173987
0.0170946
0.0373796
0.051388
0.0340147
0.0262708
0.0308575
0.0419685
0.0304298
0.0231249
0.0630458
0.0552357
0.0563392
0.0309403
0.0604745
0.0431055
0.0391424
0.0425964
0.062338
0.0478003
0.0181336
0.0274489
0.0580419
0.0214202
0.0330682
0.0635587
0.0581003
0.0435462
0.0155173
0.0170593
0.0576801
0.0217837
0.0615012
0.0438752
0.0360106
0.027319
0.0106501
0.0157633
0.0171935
0.0579235
0.048951
0.0628801
0.0548494
0.0246427
0.0105173
0.0586182
0.0491954
0.048552
0.0295419
0.0636642
0.0379213
0.0634363
0.0246324
0.0220542
0.0348518
0.0624703
0.0187982
0.0639526
0.0324471
0.0601846
0.0352017
0.0273151
0.0122811
0.0444507
0.059357
0.062096
0.0554958
0.0339504
0.0551274
0.0595992
0.0168566
0.0632085
0.0379746
0.0197401
0.0645709
0.0421887
0.0638712
0.0235579
0.0285314
0.010656
0.040769
0.0340507
0.0433722
0.05967
0.0428067
0.0422614
0.0313673
0.037237
0.0437119
0.0601278
0.0335254
0.062513
0.0435199
0.0298517
0.0268419
0.0425904
0.0375377
0.0384661
0.0173293
0.0437793
0.0257647
0.0634995
0.0357975
0.0203643
0.0227298
0.0164585
0.061608
0.0608691
0.0447875
0.0492861
0.0346414
0.0642889
0.0276307
0.0303634
0.0328074
0.0628611
0.0202256
0.0638787
0.0616632
0.0612704
0.0583935
0.0640665
0.0164205
0.0185653
0.058589
0.0588329
0.0597205
0.0545675
0.0344027
0.0551561
0.0489603
0.0258509
0.0594299
0.01625
0.0463153
0.051098
0.0597643
0.0383046
0.0265881
0.0595687
0.0192849
0.0628861
0.0320507
0.0339814
0.0622144
0.0237521
0.0417438
0.0264974
0.0150467
0.0427336
0.0430617
0.0369478
0.0594587
0.0288771
0.0272346
0.0159972
0.0430684
0.022983
0.0351567
0.0383464
0.0429045
0.0254742
0.0600904
0.00840461
0.062273
0.0629689
0.0631605
0.0173267
0.0641524
0.0125218
0.0191758
0.0120567
0.0256568
0.0605092
0.0434176
0.0205311
0.0395135
0.0333675
0.0547112
0.0350295
0.0498522
0.0435224
0.0596098
0.0246849
0.015482
0.0450876
0.0625728
0.00672463
0.0600268
0.0224199
0.0306568
0.0179983
0.0280687
0.0607471
0.0349747
0.0437817
0.0609924
0.041115
0.0411213
0.0387908
0.0503882
0.0126982
0.0141435
0.062026
0.0559479
0.0462351
0.0623304
0.0616251
0.0344904
0.0197949
0.035577
0.0323045
0.0160731
0.0390892
0.064075
0.0379619
0.0374383
0.0433872
0.0270364
0.0595635
0.0296448
0.0354566
0.016514
0.0436354
0.0228149
0.0630617
0.0577302
0.0317773
0.064354
0.0586759
0.0634869
0.0425479
0.0598971
0.0425836
0.020513
0.0261177
0.0597105
0.0435374
0.0336102
0.0619487
0.059589
0.0145608
0.043213
0.0268156
0.0203872
0.0261097
0.035736
0.048218
0.0628598
0.0618101
0.0434099
0.06344
0.0438173
0.0314333
0.0602128
0.0602236
0.0385386
0.00853434
0.0271914
0.0183534
0.0593893
0.0153592
0.0354124
0.0239075
0.0247445
0.0423062
0.0610428
0.0151505
0.0498867
0.0604109
0.0328683
0.054464
0.0446008
0.0190549
0.0639516
0.0624356
0.0279853
0.0359535
0.0347068
0.0357744
0.062719
0.058225
0.0611077
0.00398588
0.0630472
0.00817522
0.0389104
0.0362662
0.00509295
0.0259641
0.0398444
0.0340222
0.0617451
0.0266693
0.061167
0.0465823
0.0165477
0.0628163
0.0637559
0.0440519
0.0254075
0.0293851
0.0142171
0.0606264
0.0545863
0.0614107
0.0439673
0.0534719
0.022666
0.0439999
0.0147015
0.0361137
0.017248
0.0211705
0.0613894
0.0269517
0.0193634
0.0577332
0.0310339
0.0508851
0.0625602
0.0198803
0.0061547
0.0432714
0.0475581
0.0272731
0.060643
0.0566723
0.0416127
0.0356373
0.0444288
0.0631915
0.0476949
0.0504172
0.0323019
0.0619092
0.00522007
0.0617058
0.0598365
0.0598609
0.0599564
0.0631114
0.0236425
0.063239
0.0193894
0.0589104
0.0284645
0.0115323
0.0365141
0.0349831
0.0604136
0.0147254
0.0365435
0.0605516
0.0360797
0.0480438
0.0601211
0.00766787
0.0121242
0.0451328
0.0151869
0.0365649
0.0301868
0.0612167
0.0600599
0.0635145
0.0331293
0.0177604
0.0606161
0.0199726
0.0621224
0.0424192
0.0630007
0.0399471
0.0316235
0.0620759
0.0364338
0.026175
0.0445869
0.0254402
0.0581138
0.026619
0.0409087
0.0461709
0.06139
0.00897177
0.0608733
0.0172244
0.00825427
0.0441034
0.032611
0.0446437
0.0173648
0.0633544
0.0246429
0.0358174
0.0220956
0.0264723
0.0540781
0.00539576
0.0194674
0.0136316
0.0180531
0.0604147
0.0325542
0.0613343
0.0266521
0.0637449
0.013054
0.0450948
0.061347
0.0337568
0.0364325
0.0137799
0.0612269
0.0278342
0.0604064
0.0366697
0.0627947
0.0474379
0.0408374
0.036791
0.05048
0.0317701
0.0627364
0.0376733
0.0222536
0.0293218
0.0370173
0.0480316
0.0332057
0.0352401
0.0432252
0.0265251
0.0292844
0.0457757
0.0615993
0.0303007
0.0264712
0.0609745
0.0258785
0.0541742
0.0566518
0.0196636
0.0365278
0.0149792
0.0249501
0.0590503
0.0260244
0.0242672
0.0628677
0.0641084
0.0597135
0.0329475
0.0306714
0.0157998
0.0616957
0.0440326
0.0598725
0.0601234
0.044384
0.0408587
0.026668
0.0343865
0.0598186
0.0607269
0.0598659
0.00473238
0.0610255
0.0608832
0.0452276
0.0284908
0.0467441
0.0462818
0.0466582
0.0289152
0.0230246
0.060369
0.0508429
0.010356
0.0112295
0.0296966
0.0642439
0.0385644
0.0336876
0.0187903
0.0628404
0.064082
0.0487931
0.0604968
0.0371933
0.0607291
0.0363966
0.0364406
0.045572
0.0302839
0.0602672
0.0178748
0.030914
0.0637062
0.0628894
0.0370339
0.0603935
0.0477046
0.0262415
0.0377681
0.0191118
0.0258423
0.0442946
0.0181796
0.0608392
0.0619818
0.0352721
0.0610109
0.0130687
0.0620352
0.0136463
0.0305658
0.0250207
0.0386105
0.046356
0.00805087
0.058838
0.0250746
0.0342695
0.0460528
0.0435089
0.0274924
0.00895571
0.0164302
0.0255887
0.0604259
0.0414171
0.0612712
0.0383266
0.0287888
0.0565792
0.0500659
0.0415738
0.0310609
0.0443906
0.0622957
0.0639016
0.0470652
0.0157133
0.025515
0.0291872
0.0219188
0.0527673
0.0368757
0.00872553
0.0185554
0.0365269
0.0533867
0.0370872
0.0165194
0.0507726
0.00467795
0.00494546
0.0630463
0.0174351
0.0306852
0.0592974
0.0246808
0.0363292
0.0368022
0.0161366
0.0599814
0.0594648
0.059611
0.0317822
0.0454198
0.0242275
0.0535449
0.0605051
0.0570433
0.0490003
0.0616896
0.0262785
0.0259079
0.0351923
0.0598484
0.0601101
0.0116591
0.0278949
0.0586758
0.00741815
0.0108092
0.0166228
0.0289006
0.0552228
0.0313556
0.0285534
0.0382368
0.00600663
0.0461369
0.0603883
0.0614529
0.0548197
0.0611269
0.0593793
0.0175005
0.0479824
0.0325699
0.0394522
0.0379521
0.00753902
0.0552528
0.0307473
0.00801863
0.0130507
0.040077
0.0598889
0.0284159
0.0593271
0.0246806
0.0194975
0.0141029
0.0638598
0.0534448
0.0419877
0.0339998
0.0494253
0.0509784
0.0493009
0.0166934
0.0602456
0.0226585
0.0365102
0.0243025
0.00762614
0.0285063
0.0365047
0.0369529
0.0548815
0.0227966
0.0366906
0.0352785
0.0361702
0.0563989
0.0128913
0.0363237
0.0225311
0.0145595
0.0483681
0.0608291
0.0435367
0.0252349
0.0470039
0.0250756
0.0323673
0.0160919
0.0600452
0.0546036
0.0261347
0.0596445
0.0163453
0.0595857
0.0311534
0.0285865
0.0575297
0.0279221
0.058997
0.00464018
0.0069744
0.0366412
0.0310331
0.0268188
0.0303441
0.061049
0.0165397
0.0141969
0.00869326
0.0543719
0.0592408
0.0280428
0.0367985
0.058811
0.0545572
0.0525258
0.056193
0.0244122
0.0472832
0.024104
0.0595025
0.0523491
0.0448657
0.0118809
0.0112238
0.0599755
0.0266523
0.0374525
0.0214768
0.0135447
0.0366903
0.021195
0.0522957
0.0229218
0.0490349
0.0362556
0.0594524
0.0238072
0.00974199
0.0380032
0.050399
0.023884
0.00763232
0.0214724
0.0277195
0.0143464
0.0194033
0.0251979
0.0232455
0.0586405
0.0368348
0.0597253
0.0141819
0.0165835
0.0592685
0.0344204
0.0597437
0.0368802
0.0220213
0.0152463
0.0118993
0.047962
0.0518783
0.00774574
0.0504162
0.0538232
0.0363764
0.0579465
0.0401239
0.0322421
0.0507862
0.0258952
0.0489635
0.0137099
0.0452976
0.0134655
0.0532862
0.0572058
0.0352982
0.0262608
0.0432287
0.0362917
0.0278494
0.0124814
0.0595723
0.0491977
0.0594467
0.047658
0.0477286
0.0233086
0.0543513
0.0619378
0.0511729
0.0146713
0.0272378
0.0585043
0.0508738
0.0135306
0.0506604
0.042041
0.00608626
0.0518285
0.0478679
0.0490884
0.0256324
0.0345903
0.0390042
0.0506494
0.0582624
0.0172071
0.0462201
0.0598662
0.0203518
0.0346502
0.0354955
0.0154923
0.0587275
0.0158722
0.0591939
0.0541832
0.054895
0.0166949
0.0222137
0.0488483
0.00717066
0.035478
0.0476386
0.0218199
0.0457628
0.0263059
0.0531239
0.0585827
0.00745551
0.0552877
0.0476171
0.0548572
0.0534507
0.00356491
0.00404169
0.0128286
0.0161599
0.047215
0.0116884
0.0360715
0.0577588
0.0366308
0.0465157
0.0575363
0.0360182
0.00648157
0.0337356
0.0355487
0.036635
0.0593992
0.054088
0.0135032
0.0550858
0.0364523
0.0139045
0.0346207
0.0170241
0.01213
0.0169937
0.0430377
0.00805862
0.0185025
0.0181329
0.0169477
0.0584491
0.00850747
0.0460659
0.0281399
0.0325117
0.0177721
0.0463824
0.017828
0.0590013
0.00425879
0.0172564
0.025639
0.0107409
0.0461498
0.0486123
0.00663233
0.0546407
0.0172416
0.0352859
0.0152465
0.0427223
0.035602
0.0495616
0.0271584
0.0511486
0.0384107
0.0271794
0.0323605
0.0169466
0.0503972
0.0228008
0.0444036
0.0579172
0.0334135
0.015516
0.0312093
0.00685174
0.0123687
0.0170372
0.0585375
0.0580041
0.0321855
0.0260381
0.0438402
0.0112999
0.0450767
0.0398847
0.0541219
0.058195
0.0548086
0.013397
0.0400263
0.0585861
0.0444876
0.051603
0.0545424
0.0339127
0.0171275
0.0337163
0.0365652
0.0164604
0.0409243
0.058539
0.0533289
0.0485228
0.0576803
0.0572036
0.0166072
0.0502606
0.0358212
0.0362092
0.0156858
0.0320596
0.0255514
0.0494112
0.0346361
0.0341453
0.0341947
0.0587631
0.0361286
0.0580827
0.0317115
0.0509665
0.0153495
0.0570398
0.0115603
0.0582668
0.012264
0.0414895
0.00586907
0.0425013
0.0431043
0.0535959
0.0307409
0.00831097
0.0329461
0.0430154
0.011313
0.00908601
0.00706532
0.016338
0.0297797
0.0574508
0.0578486
0.0159488
0.0573041
0.0570331
0.0135713
0.0379168
0.0129888
0.0306924
0.0346778
0.0427054
0.0324829
0.0276626
0.0140839
0.0578171
0.0170896
0.0295077
0.0352019
0.0569472
0.0363559
0.0117245
0.0163565
0.0516034
0.0180494
0.0166504
0.0329108
0.0161822
0.0300875
0.0543377
0.0171022
0.0391383
0.0405038
0.0176126
0.0322603
0.0559755
0.00933187
0.016834
0.0164724
0.0364128
0.0271083
0.0316512
0.0543285
0.0257609
0.0337131
0.0513346
0.0312216
0.00360069
0.00337712
0.0162703
0.0339046
0.0410557
0.0270149
0.0436553
0.0343356
0.00691271
0.0426491
0.035687
0.029532
0.0431585
0.00909284
0.0148244
0.0122001
0.0159033
0.0437858
0.0341131
0.00775407
0.0561644
0.0338818
0.0314999
0.0563117
0.0360772
0.0164332
0.0164851
0.041628
0.0267542
0.0159271
0.0562913
0.0168328
0.0329464
0.0252416
0.00598397
0.0351761
0.0386099
0.0386571
0.0145072
0.0571379
0.0562304
0.030381
0.0281209
0.05758
0.0550485
0.035708
0.0571625
0.0349617
0.0145864
0.056499
0.0548741
0.0314857
0.0102859
0.0567764
0.0161672
0.0571805
0.0252849
0.0209188
0.00732371
0.0560476
0.0356142
0.0318989
0.0268041
0.0320367
0.0241045
0.00615056
0.0101501
0.0519126
0.0312276
0.0555667
0.0539177
0.0359692
0.0565508
0.0287884
0.043468
0.034664
0.0524877
0.0521777
0.0580008
0.0104733
0.0384661
0.0494693
0.0341702
0.0571059
0.0247367
0.0538091
0.0325973
0.0511946
0.00883019
0.0564077
0.0159835
0.00721855
0.0348368
0.0432941
0.0084693
0.0551061
0.0269467
0.0231234
0.0410993
0.0353957
0.0371301
0.0367488
0.0555139
0.0569533
0.0418295
0.0482531
0.0352707
0.0426477
0.0576358
0.0284789
0.00964516
0.0324107
0.0509194
0.0316734
0.0505741
0.0263889
0.0558789
0.00750111
0.00671258
0.0549587
0.00872304
0.0393729
0.0547608
0.05513
0.0557158
0.0279647
0.0246518
0.0434968
0.0548582
0.0535957
0.0347002
0.0554726
0.0339621
0.0537107
0.0056702
0.00519086
0.0284063
0.0560544
0.0535574
0.0128223
0.030502
0.0193408
0.0367239
0.0533637
0.0509736
0.0200172
0.0545326
0.0170443
0.0160917
0.027666
0.0314511
0.0342933
0.0318052
0.0492454
0.0478183
0.0236431
0.0469753
0.0226838
0.0202057
0.0288381
0.0137459
0.0323351
0.0530548
0.032244
0.00531311
0.00417451
0.0533939
0.0276573
0.0535775
0.0433289
0.0432994
0.0530811
0.0543675
0.0346134
0.0532645
0.0274458
0.051828
0.0540711
0.0199915
0.0461783
0.0314739
0.0512891
0.0231514
0.0186209
0.0519728
0.0177954
0.0341594
0.034981
0.0524681
0.0504396
0.0527254
0.0456871
0.0305835
0.050583
0.0189577
0.0206077
0.0290671
0.0173192
0.0180192
0.0172076
0.0508112
0.00715429
0.0506486
0.0183868
0.026972
0.052089
0.0493693
0.0442291
0.043079
0.043256
0.0432868
0.030605
0.0444493
0.0261723
0.0183289
0.0491238
0.050258
0.0513067
0.02868
0.0416007
0.0195126
0.0243857
0.0275762
0.0493576
0.0475284
0.0300619
0.0503416
0.0509062
0.0299945
0.0345409
0.040898
0.0291288
0.0512602
0.0395061
0.0282262
0.0302199
0.0448488
0.0469243
0.0028506
0.00314262
0.0185454
0.00183154
0.0337186
0.00390744
0.0165181
0.0186005
0.0320889
0.0175711
0.0162055
0.0162244
0.018701
0.0168478
0.0155638
0.0164472
0.0432412
0.0423345
0.0431589
0.039971
0.042485
0.042934
0.0433453
0.0276408
0.0180605
0.0140263
0.0180364
0.0150755
0.015937
0.017139
0.0430563
0.0444563
0.0539272
0.0488612
0.0501256
0.0497559
0.00858127
0.00675997
0.0222365
0.0139586
0.0230408
0.00501927
0.0125363
0.0259019
0.0115615
0.0127742
0.0089817
0.00438738
0.0553927
0.0214787
0.014009
0.00569772
0.0105287
0.0264854
0.00507186
0.0254199
0.028086
0.00785503
0.0188448
0.030218
0.0226866
0.00369343
0.00368071
0.00466814
0.0030169
0.00623869
0.0029768
0.00370769
0.00320561
0.033429
0.015525
0.0169169
0.00369215
0.00183654
0.00224169
0.0103833
0.0294578
0.025161
0.0040945
0.00534164
0.00503352
0.0159634
0.0188167
0.00766612
0.0130312
0.058027
0.0102379
0.00465704
0.00405105
0.00344946
0.00583384
0.00330589
0.00616113
0.00372656
0.00356792
0.00343185
0.00196017
0.00212861
0.0322926
0.0289237
0.00865964
0.0597875
0.00379341
0.00520384
0.00835136
0.00773285
0.0181015
0.00527933
0.0280844
0.00773776
0.0200224
0.0187484
0.00275153
0.0180334
0.00865018
0.0123285
0.00450064
0.0614281
0.0161314
0.0277072
0.00445526
0.00720917
0.0633448
0.00717841
0.00594803
0.00285322
0.0193787
0.0268443
0.0641614
0.00523882
0.0113911
0.00248339
0.0267351
0.0634657
0.0122618
0.0616899
0.0256574
0.00405209
0.02575
0.0630907
0.0126319
0.0245238
0.0128056
0.0109249
0.0103521
0.00289188
0.02387
0.0035402
0.00320501
0.063997
)
;

boundaryField
{
    patch0
    {
        type            kqRWallFunction;
        value           nonuniform List<scalar> 
4010
(
0.0187974
0.0187974
0.0251067
0.0251067
0.0423317
0.0423317
0.0474387
0.0474387
0.02572
0.02572
0.0477422
0.0477422
0.0502
0.0502
0.0506792
0.0506792
0.0543255
0.0543255
0.0421678
0.0421678
0.0548546
0.0548546
0.0592385
0.0592385
0.0230633
0.0230633
0.059589
0.059589
0.0643432
0.0643432
0.0644694
0.0644694
0.0244064
0.0244064
0.0623403
0.0623403
0.0170177
0.0170177
0.0625951
0.0625951
0.022919
0.022919
0.032201
0.032201
0.0217167
0.0217167
0.0640707
0.0640707
0.032133
0.032133
0.0412327
0.0412327
0.0408302
0.0408302
0.03941
0.03941
0.0265381
0.0265381
0.0513509
0.0513509
0.0234014
0.0234014
0.0352808
0.0352808
0.0171545
0.0171545
0.0236973
0.0236973
0.0385663
0.0385663
0.0196779
0.0196779
0.0361637
0.0361637
0.0301777
0.0301777
0.0523398
0.0523398
0.0247446
0.0247446
0.038509
0.038509
0.023208
0.023208
0.0396047
0.0396047
0.0210094
0.0210094
0.0425883
0.0425883
0.0227368
0.0227368
0.0229153
0.0229153
0.0467209
0.0467209
0.00963558
0.00963558
0.0152796
0.0152796
0.0179046
0.0179046
0.0240451
0.0240451
0.0299928
0.0299928
0.0172705
0.0172705
0.0228273
0.0228273
0.0429844
0.0429844
0.0178464
0.0178464
0.0429326
0.0429326
0.0415885
0.0415885
0.0399946
0.0399946
0.0191004
0.0191004
0.0633526
0.0633526
0.0196122
0.0196122
0.0486581
0.0486581
0.0162671
0.0162671
0.0469843
0.0469843
0.0504731
0.0504731
0.0220452
0.0220452
0.0251102
0.0251102
0.0189248
0.0189248
0.0257788
0.0257788
0.0634012
0.0634012
0.0502003
0.0502003
0.0526341
0.0526341
0.0560709
0.0560709
0.0299319
0.0299319
0.0505665
0.0505665
0.0570133
0.0570133
0.0479235
0.0479235
0.0185628
0.0185628
0.0631698
0.0631698
0.0409967
0.0409967
0.0426457
0.0426457
0.0235601
0.0235601
0.0160034
0.0160034
0.0216723
0.0216723
0.0416748
0.0416748
0.0642231
0.0642231
0.0109258
0.0109258
0.0246698
0.0246698
0.0495222
0.0495222
0.0416687
0.0416687
0.023285
0.023285
0.028038
0.028038
0.0267704
0.0267704
0.012434
0.012434
0.0506771
0.0506771
0.0634784
0.0634784
0.039694
0.039694
0.028924
0.028924
0.0379427
0.0379427
0.0258938
0.0258938
0.0387063
0.0387063
0.0414596
0.0414596
0.028814
0.028814
0.0622924
0.0622924
0.0314491
0.0314491
0.0313692
0.0313692
0.0413431
0.0413431
0.0244759
0.0244759
0.0519541
0.0519541
0.0257501
0.0257501
0.0320373
0.0320373
0.0450345
0.0450345
0.0509524
0.0509524
0.0207395
0.0207395
0.0414588
0.0414588
0.064568
0.064568
0.0224481
0.0224481
0.0527308
0.0527308
0.0123529
0.0123529
0.00496508
0.00496508
0.0193905
0.0193905
0.0203098
0.0203098
0.0586748
0.0586748
0.030583
0.030583
0.0308596
0.0308596
0.0604601
0.0604601
0.025154
0.025154
0.00929467
0.00929467
0.0570078
0.0570078
0.036541
0.036541
0.0228416
0.0228416
0.0450096
0.0450096
0.0252862
0.0252862
0.0278593
0.0278593
0.0318752
0.0318752
0.029603
0.029603
0.0642434
0.0642434
0.0359703
0.0359703
0.0453748
0.0453748
0.0587058
0.0587058
0.0171911
0.0171911
0.0171911
0.0124683
0.0124683
0.0124683
0.0429916
0.0429916
0.0112318
0.0112318
0.0319058
0.0319058
0.0288613
0.0288613
0.0415921
0.0415921
0.0221851
0.0221851
0.0419245
0.0419245
0.00488054
0.00488054
0.00488054
0.0307833
0.0307833
0.0380271
0.0380271
0.0473423
0.0473423
0.0306151
0.0306151
0.0050646
0.0050646
0.0359809
0.0359809
0.0574063
0.0574063
0.036918
0.036918
0.0478208
0.0478208
0.0284138
0.0284138
0.0422019
0.0422019
0.00502694
0.00502694
0.0392709
0.0392709
0.0281559
0.0281559
0.0297931
0.0297931
0.0050049
0.0050049
0.0552575
0.0552575
0.0261962
0.0261962
0.0211093
0.0211093
0.0478218
0.0478218
0.0630165
0.0630165
0.0415036
0.0415036
0.0454748
0.0454748
0.0321829
0.0321829
0.0481519
0.0481519
0.0240961
0.0240961
0.0182919
0.0182919
0.0434732
0.0434732
0.032614
0.032614
0.0640884
0.0640884
0.0541672
0.0541672
0.0298629
0.0298629
0.00644392
0.00644392
0.0301585
0.0301585
0.0307069
0.0307069
0.0328054
0.0328054
0.0572868
0.0572868
0.0495088
0.0495088
0.0324007
0.0324007
0.0507438
0.0507438
0.060865
0.060865
0.0474879
0.0474879
0.0308312
0.0308312
0.00502591
0.00502591
0.00502591
0.0333052
0.0333052
0.0319109
0.0319109
0.032799
0.032799
0.031105
0.031105
0.013872
0.013872
0.0295429
0.0295429
0.0288789
0.0288789
0.0512324
0.0512324
0.0246768
0.0246768
0.0330266
0.0330266
0.0478724
0.0478724
0.0297612
0.0297612
0.0292347
0.0292347
0.0222048
0.0222048
0.0222048
0.00523125
0.00523125
0.029492
0.029492
0.064206
0.064206
0.0308443
0.0308443
0.0333044
0.0333044
0.0598467
0.0598467
0.0426537
0.0426537
0.0325882
0.0325882
0.0510826
0.0510826
0.0614223
0.0614223
0.0323946
0.0323946
0.0427439
0.0427439
0.0291372
0.0291372
0.0643189
0.0643189
0.0548929
0.0548929
0.0338155
0.0338155
0.0610213
0.0610213
0.0638856
0.0638856
0.0332202
0.0332202
0.0306813
0.0306813
0.0197861
0.0197861
0.0406099
0.0406099
0.0326944
0.0326944
0.0267401
0.0267401
0.0339971
0.0339971
0.0368804
0.0368804
0.0368804
0.0636933
0.0636933
0.0516179
0.0516179
0.0323915
0.0323915
0.00526246
0.00526246
0.00526246
0.06405
0.06405
0.032739
0.032739
0.0635271
0.0635271
0.0298226
0.0298226
0.0363706
0.0363706
0.0283242
0.0283242
0.0553849
0.0553849
0.047967
0.047967
0.0563225
0.0563225
0.0638737
0.0638737
0.0346764
0.0346764
0.00562587
0.00562587
0.0330186
0.0330186
0.0301944
0.0301944
0.0595405
0.0595405
0.064004
0.064004
0.0414341
0.0414341
0.0325557
0.0325557
0.0325015
0.0325015
0.0552051
0.0552051
0.0312239
0.0312239
0.0324564
0.0324564
0.0419671
0.0419671
0.0584052
0.0584052
0.0350185
0.0350185
0.057963
0.057963
0.021837
0.021837
0.0630987
0.0630987
0.0273158
0.0273158
0.0137781
0.0137781
0.0298808
0.0298808
0.0419737
0.0419737
0.0213665
0.0213665
0.034437
0.034437
0.0408178
0.0408178
0.0623776
0.0623776
0.0588619
0.0588619
0.0344804
0.0344804
0.0357016
0.0357016
0.0319295
0.0319295
0.0114245
0.0114245
0.00560679
0.00560679
0.00560679
0.0430734
0.0430734
0.0358745
0.0358745
0.0115943
0.0115943
0.0521862
0.0521862
0.0632437
0.0632437
0.00685435
0.00685435
0.0556837
0.0556837
0.0330739
0.0330739
0.0377939
0.0377939
0.0538591
0.0538591
0.03488
0.03488
0.0629249
0.0629249
0.015383
0.015383
0.0392641
0.0392641
0.064116
0.064116
0.0286794
0.0286794
0.0627484
0.0627484
0.0630836
0.0630836
0.00747878
0.00747878
0.00747878
0.0358723
0.0358723
0.0623072
0.0623072
0.0428492
0.0428492
0.0593111
0.0593111
0.0367217
0.0367217
0.0213477
0.0213477
0.0621057
0.0621057
0.0330419
0.0330419
0.0436032
0.0436032
0.0281546
0.0281546
0.0213548
0.0213548
0.0356539
0.0356539
0.0292997
0.0292997
0.061083
0.061083
0.0218654
0.0218654
0.0313304
0.0313304
0.0589055
0.0589055
0.0374339
0.0374339
0.0311063
0.0311063
0.0562592
0.0562592
0.0295508
0.0295508
0.0416962
0.0416962
0.0408695
0.0408695
0.0392643
0.0392643
0.063462
0.063462
0.033665
0.033665
0.0358164
0.0358164
0.0481122
0.0481122
0.0634786
0.0634786
0.0317587
0.0317587
0.0504482
0.0504482
0.0284793
0.0284793
0.0622915
0.0622915
0.061456
0.061456
0.0353498
0.0353498
0.0405485
0.0405485
0.0428358
0.0428358
0.0410601
0.0410601
0.0416581
0.0416581
0.0636811
0.0636811
0.0437012
0.0437012
0.0315336
0.0315336
0.0296062
0.0296062
0.06383
0.06383
0.0636887
0.0636887
0.0196262
0.0196262
0.0587067
0.0587067
0.0223257
0.0223257
0.0387749
0.0387749
0.0383994
0.0383994
0.0346161
0.0346161
0.0365041
0.0365041
0.0611678
0.0611678
0.0268706
0.0268706
0.0638671
0.0638671
0.0049487
0.0049487
0.0593434
0.0593434
0.032526
0.032526
0.0108068
0.0108068
0.0362417
0.0362417
0.0624915
0.0624915
0.0609657
0.0609657
0.041306
0.041306
0.0367204
0.0367204
0.0468253
0.0468253
0.0305512
0.0305512
0.0288217
0.0288217
0.0408702
0.0408702
0.0423465
0.0423465
0.0604954
0.0604954
0.0312934
0.0312934
0.0353363
0.0353363
0.0629557
0.0629557
0.0426046
0.0426046
0.0173363
0.0173363
0.0626323
0.0626323
0.0639681
0.0639681
0.0338065
0.0338065
0.0600532
0.0600532
0.0636537
0.0636537
0.0637266
0.0637266
0.0344421
0.0344421
0.0318562
0.0318562
0.0310273
0.0310273
0.0602953
0.0602953
0.0600459
0.0600459
0.0443957
0.0443957
0.0423325
0.0423325
0.0467953
0.0467953
0.0387077
0.0387077
0.0285727
0.0285727
0.0348786
0.0348786
0.0505971
0.0505971
0.048855
0.048855
0.0202368
0.0202368
0.0202368
0.040377
0.040377
0.0326055
0.0326055
0.0640605
0.0640605
0.0646283
0.0646283
0.0137956
0.0137956
0.0631496
0.0631496
0.0288035
0.0288035
0.0289169
0.0289169
0.00400682
0.00400682
0.00400682
0.0408407
0.0408407
0.0610031
0.0610031
0.0533775
0.0533775
0.0328198
0.0328198
0.0388296
0.0388296
0.0366949
0.0366949
0.0278551
0.0278551
0.0623093
0.0623093
0.0507528
0.0507528
0.0456243
0.0456243
0.0433696
0.0433696
0.0623231
0.0623231
0.0603492
0.0603492
0.0222376
0.0222376
0.0504746
0.0504746
0.0601717
0.0601717
0.0287253
0.0287253
0.0611906
0.0611906
0.0269945
0.0269945
0.0358349
0.0358349
0.0588836
0.0588836
0.0627224
0.0627224
0.0532902
0.0532902
0.0306245
0.0306245
0.04289
0.04289
0.0411803
0.0411803
0.0627388
0.0627388
0.0420466
0.0420466
0.0261334
0.0261334
0.0487116
0.0487116
0.0429525
0.0429525
0.0587369
0.0587369
0.0199493
0.0199493
0.0511223
0.0511223
0.0343592
0.0343592
0.0309988
0.0309988
0.0420729
0.0420729
0.0320278
0.0320278
0.032315
0.032315
0.0599293
0.0599293
0.0365819
0.0365819
0.0365819
0.0382277
0.0382277
0.0622739
0.0622739
0.0358128
0.0358128
0.044574
0.044574
0.0639811
0.0639811
0.0297813
0.0297813
0.0327608
0.0327608
0.0641848
0.0641848
0.0407764
0.0407764
0.0361289
0.0361289
0.0593644
0.0593644
0.0624557
0.0624557
0.025699
0.025699
0.0637622
0.0637622
0.0634146
0.0634146
0.0325007
0.0325007
0.0214151
0.0214151
0.0239109
0.0239109
0.0288828
0.0288828
0.0463351
0.0463351
0.0532644
0.0532644
0.0455033
0.0455033
0.0547853
0.0547853
0.0464155
0.0464155
0.0376412
0.0376412
0.0281589
0.0281589
0.0583957
0.0583957
0.05985
0.05985
0.0280983
0.0280983
0.063731
0.063731
0.0508991
0.0508991
0.0625149
0.0625149
0.0604347
0.0604347
0.0646504
0.0646504
0.0386902
0.0386902
0.0520412
0.0520412
0.0415421
0.0415421
0.054462
0.054462
0.0316642
0.0316642
0.0358341
0.0358341
0.0430872
0.0430872
0.0628634
0.0628634
0.0430024
0.0430024
0.0633198
0.0633198
0.0205645
0.0205645
0.0431197
0.0431197
0.027432
0.027432
0.0507519
0.0507519
0.0576617
0.0576617
0.0608397
0.0608397
0.0636195
0.0636195
0.0414669
0.0414669
0.0423048
0.0423048
0.0408971