/*--------------------------------*- C++ -*----------------------------------*\
  =========                 |
  \\      /  F ield         | OpenFOAM: The Open Source CFD Toolbox
   \\    /   O peration     | Website:  https://openfoam.org
    \\  /    A nd           | Version:  8
     \\/     M anipulation  |
\*---------------------------------------------------------------------------*/
FoamFile
{
    version     2.0;
    format      ascii;
    class       volScalarField;
    location    "1";
    object      nut;
}
// * * * * * * * * * * * * * * * * * * * * * * * * * * * * * * * * * * * * * //

dimensions      [0 2 -1 0 0 0 0];

internalField   nonuniform List<scalar> 
1924
(
0.00153762
0.00179111
0.00231463
0.00244331
0.00180508
0.00245237
0.00251389
0.00252634
0.00261512
0.00231043
0.0026279
0.00273095
0.00169796
0.00273895
0.00284981
0.00285301
0.0017464
0.00280286
0.00146376
0.00280873
0.00169526
0.00201081
0.00164339
0.00284167
0.00200923
0.00227072
0.00226207
0.00223926
0.00183595
0.00255256
0.0017061
0.00210263
0.0014663
0.00172027
0.00221672
0.00156391
0.00212865
0.00195876
0.00258213
0.00175774
0.0021928
0.00170424
0.00222432
0.00161554
0.00231129
0.00169106
0.0017144
0.00242283
0.00110128
0.00138703
0.00149842
0.0017334
0.00194138
0.00147321
0.00168891
0.00233027
0.00150534
0.00232141
0.00229257
0.00224285
0.00154195
0.00282818
0.00156457
0.00248619
0.00143094
0.00242984
0.00252156
0.0016538
0.0017844
0.00153917
0.00179992
0.00283013
0.00252211
0.00258689
0.00267471
0.00194119
0.002524
0.00269718
0.00245419
0.00152341
0.00281727
0.00226797
0.00231694
0.00171558
0.0014196
0.00164467
0.00229516
0.00284698
0.0011728
0.00175586
0.00249784
0.00228846
0.00170832
0.00187554
0.00182931
0.00125299
0.00252639
0.00282457
0.00223456
0.00190667
0.00219086
0.00179876
0.00220495
0.0022846
0.00190208
0.00281256
0.00199475
0.00198584
0.00228179
0.00175382
0.00255885
0.00180495
0.0020195
0.00238937
0.00253403
0.00160996
0.00229052
0.00285596
0.00167971
0.00257908
0.00124684
0.000301686
0.00156167
0.00159317
0.00272282
0.00196269
0.00196785
0.00277621
0.00178124
0.000381973
0.00268586
0.0021493
0.000196742
0.00238509
0.00177644
0.00187237
0.00201107
0.00193688
0.00284595
0.00214154
0.00239231
0.0027229
0.000136124
0.000114118
0.00232952
0.001189
0.0020022
0.00190241
0.00228787
0.00167288
0.00230083
0.000149566
0.00196252
0.00219068
0.00244378
0.00196492
0.000304678
0.00213513
0.00269388
0.000249318
0.00246314
0.00189375
0.00230806
0.000303563
0.00222451
0.00188339
0.0019399
0.000229601
0.00264475
0.00181884
0.00162811
0.00245511
0.00282597
0.00228595
0.00239452
0.00200694
0.00247354
0.000403455
0.00151151
0.00233999
0.00202194
0.00284492
0.00262128
0.00194222
0.000900293
0.0019619
0.00195902
0.00202751
0.00269429
0.00250291
0.00201524
0.00252864
0.00277777
0.00244718
0.00197571
0.000151783
0.00204266
0.00199857
0.00202662
0.00197291
0.000287974
0.00194908
0.00190905
0.00254078
0.00176519
0.00203346
0.00245679
0.00192625
0.00191257
0.000145375
0.000309717
0.00193144
0.00284554
0.00197593
0.00204196
0.00276192
0.00231706
0.002021
0.00253559
0.00279619
0.00201799
0.00231592
0.00191837
0.00284851
0.00262785
0.00205764
0.00277963
0.00283924
0.00205444
0.00195973
0.000255757
0.00225714
0.00202292
0.00037279
0.00206359
0.000189053
0.00283296
0.00254873
0.00202488
0.000155352
0.00284422
0.00202482
0.00282892
0.00193019
0.000348008
0.00188011
0.00263996
0.00245935
0.00267746
0.00283936
0.0020959
0.000275117
0.00204708
0.0019542
0.0027501
0.00284185
0.0022765
0.00201988
0.00202107
0.00263461
0.0019844
0.00202855
0.00229925
0.00272748
0.00209493
0.00272325
0.001654
0.00282688
0.00185292
0.000290811
0.00193401
0.00230481
0.00163834
0.00207715
0.00226375
0.00279947
0.00272042
0.00207795
0.00212134
0.00199893
0.000300748
0.000114355
0.00232653
0.00213687
0.00120637
0.00257214
0.00282905
0.000296415
0.00264648
0.00203608
0.00218948
0.00262264
0.00208953
0.00281586
0.00138834
0.00222676
0.0028448
0.00189086
0.00282013
0.00281982
0.000177621
0.00212918
0.00279931
0.00232142
0.00273123
0.00214468
0.00163431
0.00279446
0.00203616
0.00233827
0.00187421
0.00164293
0.00212859
0.00191989
0.00278387
0.00165389
0.00198694
0.0027212
0.00218074
0.0019809
0.00268285
0.00192389
0.00229203
0.00227578
0.00221734
0.0028252
0.00205403
0.00211796
0.00246266
0.00283273
0.00199481
0.00252213
0.00189298
0.00280084
0.00279596
0.00210347
0.00225733
0.00233119
0.00228023
0.00229412
0.00283077
0.002357
0.00199174
0.00192504
0.00283861
0.00283728
0.000238838
0.00272452
0.00168032
0.00220215
0.00218955
0.000319783
0.000495139
0.00277411
0.00182981
0.00283774
0.000787812
0.00273204
0.00201993
0.0011689
0.00212869
0.00280708
0.00276919
0.00227827
0.00214303
0.0024299
0.00196171
0.00189995
0.00227355
0.00231818
0.0027571
0.00198566
0.0021031
0.00281882
0.00231258
0.000342201
0.00281061
0.00284164
0.00206032
0.00275543
0.00283746
0.00283577
0.00207741
0.00200499
0.00197155
0.0027528
0.00276802
0.00236148
0.00230233
0.00243018
0.000448639
0.00189631
0.00209045
0.00252751
0.00248352
0.000118627
0.00224555
0.00202562
0.00284154
0.00285796
0.00131978
0.00282572
0.00189795
0.00190654
6.99637e-05
0.00226587
0.00276854
0.0025977
0.00203008
0.00220243
0.00214279
0.00187216
0.00280119
0.00252752
0.00240076
0.00233434
0.00279961
0.00275669
0.00166978
0.0025222
0.00275217
0.00189814
0.00277374
0.00183668
0.00211813
0.00272109
0.00281993
0.00260797
0.00196423
0.00232241
0.00227532
0.00280954
0.00230131
0.00181196
0.00248006
0.00232296
0.00271837
0.00158278
0.00253735
0.00207727
0.00197153
0.00229382
0.00200908
0.00201455
0.00275443
0.00016084
0.00218711
0.00280889
0.00211846
0.0023679
0.00284213
0.00193776
0.00203314
0.00284392
0.00225755
0.00212784
0.00273342
0.002807
0.00179814
0.00284116
0.00282447
0.00202279
0.00163701
0.00173699
0.00190244
0.00241625
0.00259654
0.00239679
0.00262508
0.00241649
0.00216904
0.00188345
0.00273206
0.00274615
0.00187746
0.00283293
0.0025398
0.00280648
0.00276779
0.00285897
0.00220185
0.00256197
0.00228613
0.00262725
0.00199825
0.00211945
0.00232376
0.00281718
0.00232628
0.00283071
0.00160514
0.0023286
0.00185863
0.00252866
0.00269458
0.0027669
0.00283939
0.00228352
0.00230145
0.00227752
0.00269611
0.00281077
0.00195081
0.00206507
0.00179256
0.00234285
0.00274788
0.0022236
0.00194635
0.00270242
0.00283294
0.00278816
0.00230803
0.00203876
0.0024191
0.00245615
0.00203975
0.00215539
0.00263304
0.00285947
0.00182889
0.00275366
0.00280302
0.00272266
0.00209084
0.00215914
0.00278586
0.00149365
0.00216138
0.00249372
0.00177758
0.00282893
0.00191703
0.00158262
0.00186914
0.00262304
0.00256191
0.00188919
0.0016622
0.00209594
0.00200548
0.00232359
0.00148677
0.0028263
0.00274566
0.00233487
0.00262906
0.0024678
0.0027637
0.00283155
0.00232282
0.0022933
0.00284613
0.00187406
0.00227336
0.00160287
0.00147615
0.00146368
0.0021699
0.00255436
0.00207015
0.00181871
0.00196906
0.00229729
0.00195442
0.00169951
0.00281668
0.00264006
0.00268515
0.00197652
0.00276079
0.00232875
0.00221229
0.0023148
0.00280541
0.00245665
0.00150909
0.00185221
0.00270932
0.00164185
0.00204333
0.0028395
0.00270342
0.00234114
0.00139784
0.00146056
0.0027003
0.00165872
0.00278386
0.00236287
0.00212699
0.00185516
0.000293689
0.00140804
0.00146643
0.00270513
0.00248611
0.00282306
0.00264019
0.00176304
0.00115324
0.00272193
0.00249132
0.00247971
0.00193109
0.00283379
0.00218267
0.00282612
0.00175709
0.00166643
0.002095
0.00280802
0.00153706
0.00284121
0.0020242
0.00276567
0.00210125
0.001849
0.00124234
0.0023772
0.00273894
0.00279618
0.00264553
0.00207108
0.00263641
0.00275599
0.00145613
0.00283397
0.002184
0.00157749
0.00285899
0.0022998
0.00284028
0.001725
0.00189726
0.00115953
0.00225839
0.00206943
0.00233244
0.00274526
0.0023202
0.00230503
0.00199084
0.00216339
0.00234478
0.00275412
0.00205848
0.00281032
0.00233744
0.00193607
0.00183892
0.00231384
0.00218104
0.00219398
0.0014779
0.00234672
0.00180233
0.00282846
0.00212234
0.00160154
0.00168827
0.00143606
0.00279114
0.00277131
0.00237222
0.00249872
0.0020922
0.00285455
0.00186632
0.00195853
0.00203678
0.00281314
0.00159169
0.00283668
0.00278996
0.00277924
0.00271114
0.00284517
0.00143324
0.00153248
0.00272277
0.00272832
0.00275691
0.00263288
0.00208576
0.00263767
0.00248549
0.00180351
0.00274089
0.00142996
0.00242915
0.00253801
0.00274785
0.0021944
0.00183006
0.00274417
0.00156167
0.00281659
0.00201294
0.00207357
0.00279905
0.00173107
0.00228655
0.00181996
0.0013734
0.00231658
0.00232651
0.00215558
0.00274152
0.00190955
0.00185231
0.00141457
0.00232661
0.0017015
0.00210754
0.00219494
0.00232192
0.00179211
0.00275533
0.00102578
0.00280259
0.00282895
0.00281993
0.0014802
0.00284856
0.000280195
0.000181289
0.00123031
0.00178737
0.00276353
0.00233508
0.0016112
0.0022396
0.00205455
0.00263558
0.00210427
0.00250835
0.00233742
0.00275396
0.00176435
0.00139318
0.0023796
0.0028067
0.000204694
0.00275279
0.000387532
0.00196902
0.00150872
0.00188168
0.00276881
0.00210331
0.00234772
0.00277165
0.00227937
0.00228176
0.00220384
0.00253751
0.00126242
0.0013359
0.00280864
0.0026745
0.00240882
0.00280926
0.0027864
0.00208898
0.0015838
0.00211985
0.00202172
0.00142346
0.00221837
0.00285034
0.00218477
0.00217384
0.00233457
0.00183796
0.00274384
0.00193589
0.00211676
0.00144353
0.00234137
0.00169626
0.00281876
0.00269898
0.00199676
0.0028489
0.00272931
0.00283235
0.0023114
0.00275229
0.00232726
0.00161137
0.00181367
0.00274827
0.00233815
0.00206222
0.00279326
0.00274437
0.0013564
0.00233139
0.0018373
0.00159642
0.00180688
0.0021252
0.00246673
0.00281301
0.00279461
0.00234499
0.00283753
0.0023447
0.00199417
0.00275618
0.00275655
0.00220969
0.000235844
0.00185029
0.00152455
0.00274752
0.0013869
0.00211592
0.00173405
0.00176586
0.00230176
0.00277856
0.00137921
0.00250768
0.00276091
0.00203927
0.00262796
0.00236414
0.00155278
0.00284506
0.00280315
0.0018788
0.00213083
0.00209469
0.00212583
0.00281274
0.00271834
0.00277481
6.53442e-05
0.00282128
0.00025055
0.00221541
0.00213958
0.000799356
0.00180819
0.00224234
0.0020743
0.00280058
0.00183219
0.00277664
0.00241706
0.00144532
0.0028127
0.0028426
0.00235134
0.0017889
0.00192719
0.00133234
0.00276705
0.00262936
0.00278675
0.00234941
0.00261911
0.0016904
0.00234912
0.00135621
0.0021356
0.00147574
0.00163629
0.00278107
0.00184141
0.00156018
0.00269981
0.00198151
0.00255362
0.0028061
0.00158053
0.000230723
0.00233349
0.00244419
0.00185328
0.00277391
0.00268726
0.00229252
0.00212125
0.00235942
0.00282425
0.00244649
0.00252143
0.00202101
0.00279132
0.000192148
0.00279629
0.00274958
0.00275015
0.00275044
0.00282981
0.00172708
0.00282879
0.00156506
0.00272901
0.00189618
0.00120171
0.00214524
0.00210207
0.0027639
0.00135987
0.00214916
0.00276731
0.00213477
0.00246662
0.00275416
9.1081e-05
0.00123204
0.00237715
0.00138276
0.00214746
0.00195408
0.00277933
0.00275143
0.00283651
0.00204541
0.00149794
0.00276346
0.00158777
0.00279611
0.00230643
0.00281927
0.00224811
0.00199989
0.0028059
0.0021434
0.00181499
0.00236481
0.00177985
0.00271348
0.00182943
0.00227265
0.00240372
0.00277939
0.000139336
0.0027693
0.00147093
0.000259631
0.0023549
0.00202978
0.00236591
0.00148078
0.00283435
0.00176222
0.00212542
0.000192524
0.00182393
0.00261596
0.000102903
0.00156522
0.000150613
0.00150941
0.00276714
0.00202699
0.00277821
0.00183154
0.00283508
0.00127544
0.00237591
0.00278756
0.00206334
0.00214168
0.00131289
0.00277508
0.00187375
0.00276291
0.00214863
0.00282021
0.00243915
0.00227529
0.00215952
0.00252137
0.00199415
0.00282143
0.0021858
0.00167555
0.00192473
0.00215903
0.00245456
0.00204668
0.00210115
0.00234086
0.00182655
0.00191937
0.00239322
0.00278429
0.00195561
0.00182283
0.00277228
0.0018048
0.00261663
0.00267602
0.00157276
0.00214489
0.00137355
0.00177253
0.00273358
0.00180816
0.0017371
0.00282397
0.00284274
0.00274428
0.00203417
0.00196661
0.00141104
0.0027971
0.00235574
0.00274793
0.00275184
0.00236282
0.00227515
0.00183455
0.00208178
0.00274858
0.00277637
0.0027494
0.000109351
0.00277033
0.00276782
0.0023834
0.00189686
0.00241851
0.00241499
0.00243614
0.00190937
0.00170391
0.00275744
0.0025299
0.00113581
0.00118419
0.00193617
0.00284607
0.00221234
0.00206017
0.00153849
0.0028243
0.00284357
0.00247609
0.00276868
0.00216232
0.00276418
0.00214324
0.00214217
0.00239057
0.00195427
0.00276151
0.00150006
0.00197387
0.00283098
0.0028147
0.00215878
0.00276546
0.00244518
0.00181631
0.00219049
0.0015528
0.00180019
0.00237119
0.00151203
0.00276649
0.00280486
0.00210851
0.00277069
0.00128026
0.00280639
0.00130939
0.00196288
0.00177257
0.00221242
0.00241005
0.000256598
0.00272898
0.00177873
0.00207743
0.000632209
0.00234879
0.0018631
0.0010595
0.00143577
0.00179419
0.00275782
0.00228849
0.00278869
0.00220131
0.00190575
0.00267395
0.000657103
0.000600334
0.00197795
0.00236672
0.00281225
0.00283913
0.00242963
0.00140702
0.00178516
0.00191734
0.00165988
0.000672798
0.00215213
0.00104805
0.00152764
0.00214832
0.00259608
0.0021586
0.00144186
0.00252886
8.25623e-05
8.47104e-05
0.00281864
0.00147952
0.00196568
0.00273403
0.00176307
0.00213967
0.0021588
0.00142238
0.00275822
0.00273775
0.00273956
0.00199416
0.00239369
0.00174787
0.000677434
0.00275959
0.0026861
0.00248136
0.0028001
0.00182182
0.00180472
0.00210567
0.00274505
0.00274958
0.00120931
0.00187546
0.00272677
0.000115608
0.00116289
0.00144648
0.0019064
0.000684872
0.00198738
0.00189643
0.000571784
0.000206026
0.00241088
0.00275605
0.0027946
0.00263106
0.00278663
0.00273845
0.00148281
0.00245442
0.00202569
0.00224095
0.00219272
0.000124117
0.000683474
0.00196732
0.000241812
0.00128238
0.00225691
0.00274525
0.00189026
0.00273801
0.0017613
0.00156441
0.00133328
0.00283797
0.0025971
0.00231496
0.00205965
0.00249854
0.00253395
0.00249015
0.00145152
0.00276699
0.00168763
0.00214926
0.0017374
0.00024922
0.00189322
0.00214352
0.00215607
0.000680845
0.00168757
0.00214737
0.00210258
0.000551963
0.00267306
0.00127467
0.00213944
0.00169028
0.0013517
0.0024682
0.00278109
0.00235239
0.00178107
0.00243307
0.00177991
0.0020211
0.00142529
0.00274941
0.00262729
0.00181401
0.00275059
0.00143346
0.0027508
0.00197317
0.00190075
0.00270297
0.00187335
0.00272466
8.25757e-05
0.000101347
0.0021514
0.00197683
0.0018372
0.00195644
0.00278619
0.00144125
0.00133625
0.00104764
0.000677821
0.00273036
0.00187755
0.00215532
0.00272248
0.00262803
0.00257626
0.00267019
0.00175186
0.00244444
0.00173851
0.00274581
0.0025704
0.00238484
0.00122296
0.00118749
0.0027626
0.00182964
0.00218343
0.00163714
0.000150698
0.00215593
0.00163872
0.00256946
0.00170038
0.00248722
0.000552945
0.0027339
0.00173057
0.000332275
0.00220013
0.00252114
0.00173586
0.000124834
0.00164385
0.00186674
0.00134015
0.00156271
0.0017814
0.0017105
0.00271898
0.00215102
0.0027403
0.00133721
0.00144829
0.00273066
0.00208551
0.00275619
0.00215339
0.00166401
0.00138503
0.00122513
0.0024615
0.00256079
0.000251344
0.00252199
0.000674854
0.00213964
0.00271583
0.00226493
0.00201765
0.00253234
0.00180538
0.00248618
0.00131467
0.00240162
0.00129783
0.00259797
0.00269666
0.00210614
0.00181588
0.000306394
0.00213798
0.00187117
0.00125386
0.00275142
0.00249254
0.00273486
0.00245531
0.000321388
0.00171181
0.00262747
0.00280521
0.000331573
0.00136412
0.00185035
0.00271283
0.00253372
0.0013067
0.00252951
0.00231883
0.000185026
0.00256047
0.00246041
0.0024898
0.00179309
0.00209022
0.000289803
0.00252986
0.00270742
0.00147534
0.00242086
0.00275951
0.00160037
0.00209383
0.00211199
0.00139336
0.00271646
0.00141102
0.00274605
0.000340523
0.000342253
0.0014531
0.00167214
0.00248236
0.000120901
0.00212356
0.00245405
0.000383102
0.0024122
0.00181851
0.00259504
0.00272117
0.000193328
0.000342121
0.00245078
0.00264253
0.000673105
7.74426e-05
8.25282e-05
0.00127191
0.00142772
0.00243992
0.00121307
0.0021325
0.00271306
0.00214502
0.00242867
0.00270659
0.00214287
0.000113239
0.00205683
0.000273564
0.000278572
0.00275023
0.00262153
0.00130469
0.000341089
0.00214003
0.0013252
0.00209182
0.000379464
0.00123251
0.00037763
0.00234266
0.000257062
0.00152754
0.001509
0.000379543
0.0027222
0.000267934
0.00241552
0.00188389
0.000522664
0.000387938
0.00241964
0.000386989
0.00272302
0.000166166
0.000382527
0.0017947
0.00116083
0.0024125
0.00247622
0.00015532
0.000339676
0.000382423
0.00210282
0.00138418
0.00233741
0.00211263
0.00250143
0.0018475
0.0025446
0.00221116
0.00184619
0.00201792
0.000378161
0.00252362
0.00168934
0.00237455
0.00269712
0.00204877
0.00139563
0.00197602
0.000118392
0.00124849
0.000379539
0.00272109
0.00270424
0.00201304
0.00180879
0.00235688
0.00119144
0.0023867
0.0022564
0.000338218
0.00270367
0.00264225
0.00129518
0.000582649
0.00271399
0.00236871
0.00255775
0.00263448
0.00207686
0.000381233
0.00205351
0.00214434
0.000374017
0.00228116
0.00272554
0.00067259
0.00247385
0.00269356
0.00270042
0.000375018
0.00252018
0.0021188
0.00213555
0.000364932
0.00200494
0.00179165
0.00249743
0.00210164
0.000267992
0.00206753
0.00271851
0.00212866
0.00271769
0.00199469
0.00253973
0.00139156
0.00269634
0.00120719
0.00272354
0.00123801
0.00229365
0.000111695
0.000600616
0.000604438
0.000336844
0.0019742
0.000264823
0.00203039
0.00233123
0.00119429
0.00027311
0.000120424
0.00143736
0.00193496
0.00268854
0.00270123
0.00141765
0.00268249
0.00267624
0.000341
0.0021907
0.00127883
0.00195929
0.00208184
0.00231986
0.00201688
0.00187002
0.00133081
0.002695
0.000380784
0.00192952
0.00209776
0.00267358
0.00213637
0.00121561
0.000186195
0.00255879
0.000388861
0.000187314
0.00204881
0.000185383
0.00193913
0.00262762
0.000190623
0.00222669
0.000585869
0.000192496
0.00200952
0.00265021
0.000282431
0.000188554
0.000186955
0.00213928
0.00184405
0.00199049
0.0026287
0.0017979
0.00205456
0.0025519
0.00198233
7.59443e-05
7.35763e-05
0.000185693
0.00207323
0.00227524
0.0018451
0.000609673
0.00207245
0.000242128
0.000601971
0.00211369
0.00191643
0.000605681
0.000276736
0.00136385
0.0012394
0.000183456
0.000611574
0.00208658
0.000126192
0.00265499
0.0020595
0.00198553
0.00265872
0.00212718
0.0001864
0.000187117
0.00229022
0.0018435
0.000183842
0.00267609
0.000377719
0.00203134
0.00177987
0.00011229
0.000273166
0.000285917
0.000572677
0.00134821
0.00267867
0.00267349
0.00194829
0.00186865
0.00269915
0.00262799
0.0021228
0.00269213
0.00209315
0.000176416
0.0026722
0.00262372
0.00200057
0.000292791
0.00267185
0.000185329
0.00269362
0.00178929
0.000209173
0.000248654
0.00265261
0.00211438
0.00200298
0.0018184
0.000259714
0.00175088
0.000114319
0.000288234
0.000663908
0.00197772
0.00265285
0.00261277
0.00212679
0.00266689
0.00189892
0.000608984
0.00209355
0.000333555
0.000332696
0.00269986
0.000150287
0.00220427
0.000645911
0.00207275
0.00268325
0.00176067
0.00261133
0.00204194
0.0025419
0.00105473
0.00267073
0.000184039
0.000123495
0.00209219
0.000303533
0.000131701
0.0026368
0.00182765
0.00169162
0.000295309
0.00210971
0.000280171
0.00055905
0.00265256
0.00268027
0.000297983
0.000637912
0.00210852
0.000300954
0.00269967
0.00189166
0.0001423
0.00202113
0.00253789
0.00199775
0.000653961
0.00183112
0.00265376
0.000125753
0.00011893
0.00263401
0.00104819
0.00222878
0.0026242
0.00262972
0.00264545
0.00187257
0.00178627
0.000304626
0.00262328
0.00259976
0.00209264
0.00263998
0.00206978
0.00259562
0.000219207
0.00010501
0.00189159
0.0026574
0.00259198
0.00126921
0.00195332
0.000402561
0.000279119
0.00258956
0.00253084
0.000410569
0.00261934
0.000379786
0.000184697
0.00186569
0.0019947
0.00208034
0.00200807
0.000322356
0.000317549
0.00171251
0.000629604
0.000445159
0.000412172
0.00191092
0.00131416
0.00202186
0.00257942
0.00202144
0.000212478
9.42167e-05
0.00259594
0.00186904
0.00259103
0.000607018
0.000303671
0.00258339
0.00261122
0.00210013
0.00258319
0.00186695
0.00254934
0.0026044
0.000410499
0.00031209
0.00199614
0.000659531
0.00171399
0.000197626
0.00255307
0.000194827
0.000539318
0.000272883
0.002563
0.000326736
0.00257182
0.000621275
0.0019671
0.00252257
0.000199722
0.000417386
0.00191814
0.000383052
0.000391071
0.000190854
0.0025229
0.000120868
0.00251637
0.000196939
0.00184784
0.00255407
0.00248811
0.000305545
0.000301854
0.000605452
0.000604532
0.000511981
0.000612866
0.000238622
0.000196972
0.00248123
0.00250738
0.00253408
0.00190598
0.000296366
0.000204411
0.00045619
0.00186909
0.0024848
0.00243853
0.00195358
0.00251225
0.00252367
0.00194916
0.000269739
0.000587477
0.0019199
0.000329704
0.000576853
0.000244022
0.00050573
0.00237226
0.00242267
7.77305e-05
0.000163255
0.00019804
6.22726e-05
0.000532749
9.10247e-05
0.00018809
0.000399149
0.000261669
0.000387612
0.000185806
0.000185791
0.00039825
0.000189313
0.000181482
0.000373337
0.000603135
0.000298439
0.000302772
0.000290096
0.00059804
0.000300535
0.00060419
0.000241016
0.000196388
0.000172985
0.000394764
0.000179875
0.000183543
0.000380182
0.000301275
0.00236069
0.00261328
0.00247259
0.00250366
0.00249453
0.000264802
0.00011767
0.00167597
0.00132365
0.00170914
0.000102079
0.00125502
0.00180096
0.00120771
0.00126623
0.000272601
0.00017878
0.00264984
0.00165073
0.000153341
0.000108212
0.000133706
0.00182341
0.000797825
0.00179279
0.00187824
0.000115352
0.00153916
0.00194474
0.00169555
7.08517e-05
7.07842e-05
8.85626e-05
7.11257e-05
0.00010951
7.06444e-05
7.89617e-05
7.33375e-05
0.00205124
0.000324822
0.00146514
7.24282e-05
5.14579e-05
5.68681e-05
0.00026569
0.00192023
0.00177744
8.15983e-05
6.56254e-05
6.37364e-05
0.00142206
0.00154466
0.000172663
0.00128013
0.00271722
0.00113407
0.000764363
0.000176379
7.86512e-05
0.000244875
0.000148813
0.000258779
0.000158127
0.00015452
0.000151631
4.90545e-05
5.10821e-05
0.00201424
0.00190263
0.00104415
0.00275692
9.3472e-05
0.000172707
0.000177326
0.000987185
0.00151055
0.000179095
0.00187448
0.000986805
0.0015858
0.00153487
7.13365e-05
0.001507
0.00104287
0.00124866
0.000175394
0.00277763
0.00142748
0.001863
8.56337e-05
0.000951076
0.0028223
0.000950049
0.000148369
6.84147e-05
0.00155836
0.00183311
0.00284353
0.000811292
0.00119879
5.95784e-05
0.00183111
0.00282385
0.00124257
0.00278338
0.00179209
0.000165932
0.00179834
0.00281601
0.0012589
0.00175249
0.00126709
0.00116961
0.00114055
4.7544e-05
0.00172969
0.000136825
6.25914e-05
0.00283947
)
;

boundaryField
{
    patch0
    {
        type            nutkWallFunction;
        Cmu             0.09;
        kappa           0.41;
        E               9.8;
        value           nonuniform List<scalar> 
4010
(
0.000158228
0.000158228
0.000197663
0.000197663
0.000224284
0.000224284
0.000253665
0.000253665
0.000198064
0.000198064
0.000278357
0.000278357
0.000281309
0.000281309
0.000286362
0.000286362
0.000291831
0.000291831
0.00021776
0.00021776
0.000292587
0.000292587
0.000304201
0.000304201
0.000197305
0.000197305
0.000305007
0.000305007
0.000314229
0.000314229
0.000317038
0.000317038
0.000194575
0.000194575
0.000310016
0.000310016
0.000139901
0.000139901
0.000312074
0.000312074
0.000175442
0.000175442
0.000232861
0.000232861
0.000172317
0.000172317
0.000317279
0.000317279
0.000232633
0.000232633
0.000262213
0.000262213
0.000254832
0.000254832
0.000253313
0.000253313
0.000210618
0.000210618
0.000288061
0.000288061
0.00017891
0.00017891
0.000232764
0.000232764
0.000160901
0.000160901
0.000179136
0.000179136
0.000211895
0.000211895
0.000163789
0.000163789
0.000235412
0.000235412
0.000188693
0.000188693
0.000290336
0.000290336
0.000181837
0.000181837
0.000246489
0.000246489
0.000176625
0.000176625
0.000256938
0.000256938
0.000166177
0.000166177
0.000247791
0.000247791
0.000198006
0.000198006
0.000159909
0.000159909
0.000274954
0.000274954
0.000107318
0.000107318
0.000154108
0.000154108
0.000153863
0.000153863
0.000200922
0.000200922
0.000218813
0.000218813
0.000151359
0.000151359
0.000188647
0.000188647
0.000264146
0.000264146
0.000142645
0.000142645
0.000249439
0.000249439
0.000253067
0.000253067
0.000258934
0.000258934
0.0001551
0.0001551
0.000313973
0.000313973
0.000153931
0.000153931
0.000279336
0.000279336
0.000137047
0.000137047
0.000275085
0.000275085
0.000276089
0.000276089
0.000194561
0.000194561
0.000207397
0.000207397
0.000152018
0.000152018
0.000209434
0.000209434
0.00031636
0.00031636
0.000283354
0.000283354
0.000287488
0.000287488
0.000295796
0.000295796
0.000200144
0.000200144
0.000281941
0.000281941
0.000299777
0.000299777
0.00027909
0.00027909
0.000150128
0.000150128
0.000319033
0.000319033
0.000260158
0.000260158
0.000264394
0.000264394
0.000195362
0.000195362
0.000143658
0.000143658
0.000174407
0.000174407
0.000260297
0.000260297
0.000313804
0.000313804
0.000113941
0.000113941
0.000205331
0.000205331
0.000272711
0.000272711
0.000263894
0.000263894
0.000193731
0.000193731
0.000204467
0.000204467
0.000206556
0.000206556
0.000120488
0.000120488
0.000284228
0.000284228
0.000320613
0.000320613
0.00025797
0.00025797
0.000197048
0.000197048
0.000203352
0.000203352
0.000200384
0.000200384
0.000253953
0.000253953
0.000263288
0.000263288
0.000200702
0.000200702
0.000314875
0.000314875
0.000198528
0.000198528
0.000206525
0.000206525
0.000262951
0.000262951
0.000191875
0.000191875
0.000284764
0.000284764
0.000209824
0.000209824
0.000188228
0.000188228
0.000271326
0.000271326
0.000287078
0.000287078
0.000189348
0.000189348
0.000212249
0.000212249
0.000320778
0.000320778
0.000172996
0.000172996
0.000286696
0.000286696
0.000121928
0.000121928
3.3033e-05
3.3033e-05
0.000170737
0.000170737
0.000187502
0.000187502
0.000304815
0.000304815
0.000205415
0.000205415
0.000202943
0.000202943
0.000311433
0.000311433
0.000204823
0.000204823
4.09202e-05
4.09202e-05
0.000297049
0.000297049
0.000201442
0.000201442
2.33467e-05
2.33467e-05
0.000271224
0.000271224
0.000201617
0.000201617
0.000203488
0.000203488
0.000203102
0.000203102
0.00022388
0.00022388
0.00031785
0.00031785
0.000198409
0.000198409
0.000270797
0.000270797
0.000305131
0.000305131
1.57477e-05
1.57477e-05
1.57477e-05
8.05103e-06
8.05103e-06
8.05103e-06
0.000231818
0.000231818
0.000115031
0.000115031
0.000213325
0.000213325
0.000196854
0.000196854
0.000263685
0.000263685
0.000168679
0.000168679
0.00026222
0.00026222
1.73176e-05
1.73176e-05
1.73176e-05
0.00020273
0.00020273
0.000205138
0.000205138
0.000278271
0.000278271
0.000205564
0.000205564
3.3334e-05
3.3334e-05
0.000198493
0.000198493
0.000298096
0.000298096
3.0242e-05
3.0242e-05
0.000278942
0.000278942
0.000203175
0.000203175
0.000217546
0.000217546
3.32204e-05
3.32204e-05
0.000252818
0.000252818
0.000197927
0.000197927
0.000203031
0.000203031
2.57214e-05
2.57214e-05
0.000292739
0.000292739
0.000209213
0.000209213
0.000191198
0.000191198
0.000279773
0.000279773
0.000317474
0.000317474
0.000263417
0.000263417
0.000271066
0.000271066
0.000210615
0.000210615
0.000279751
0.000279751
4.87882e-05
4.87882e-05
0.000148195
0.000148195
0.000262602
0.000262602
0.0002347
0.0002347
0.000320742
0.000320742
0.00029016
0.00029016
0.000210913
0.000210913
8.93341e-05
8.93341e-05
0.000185847
0.000185847
0.000214197
0.000214197
0.000235927
0.000235927
0.000297618
0.000297618
0.00028338
0.00028338
0.000229126
0.000229126
0.000287318
0.000287318
0.000309627
0.000309627
0.000278897
0.000278897
0.00022568
0.00022568
1.75551e-05
1.75551e-05
1.75551e-05
0.000237426
0.000237426
0.000211609
0.000211609
0.000225824
0.000225824
0.000218489
0.000218489
3.27329e-05
3.27329e-05
0.000212965
0.000212965
0.000213607
0.000213607
0.000285435
0.000285435
0.000204436
0.000204436
0.000236275
0.000236275
0.000279938
0.000279938
0.000222358
0.000222358
0.000198161
0.000198161
1.6732e-05
1.6732e-05
1.6732e-05
3.3831e-05
3.3831e-05
0.000221015
0.000221015
0.000318177
0.000318177
0.000227709
0.000227709
0.000237657
0.000237657
0.000309974
0.000309974
0.000266783
0.000266783
0.000216563
0.000216563
0.000288449
0.000288449
0.000313699
0.000313699
0.000230497
0.000230497
0.000264507
0.000264507
0.000213089
0.000213089
0.000322009
0.000322009
0.000292668
0.000292668
0.000239282
0.000239282
0.000307544
0.000307544
0.000316321
0.000316321
0.000200167
0.000200167
0.000217729
0.000217729
3.03787e-05
3.03787e-05
0.000255712
0.000255712
0.00023523
0.00023523
4.42017e-05
4.42017e-05
0.000239563
0.000239563
2.27643e-05
2.27643e-05
2.27643e-05
0.000321145
0.000321145
0.000289174
0.000289174
0.000194747
0.000194747
1.79337e-05
1.79337e-05
1.79337e-05
0.000317536
0.000317536
0.00023577
0.00023577
0.000320765
0.000320765
0.00022257
0.00022257
4.18669e-05
4.18669e-05
0.000216705
0.000216705
0.000293579
0.000293579
0.000277836
0.000277836
0.000295596
0.000295596
0.000319385
0.000319385
0.000234311
0.000234311
3.03461e-05
3.03461e-05
0.000208945
0.000208945
0.00022247
0.00022247
0.000306725
0.000306725
0.000321838
0.000321838
0.000262888
0.000262888
0.000235155
0.000235155
0.00023218
0.00023218
0.000293054
0.000293054
0.000229437
0.000229437
0.0001977
0.0001977
0.000264775
0.000264775
0.000306515
0.000306515
0.000235268
0.000235268
0.000301642
0.000301642
0.000176783
0.000176783
0.000317621
0.000317621
0.000205037
0.000205037
3.17436e-05
3.17436e-05
0.000203482
0.000203482
0.000261981
0.000261981
0.000192339
0.000192339
0.000237972
0.000237972
0.00026099
0.00026099
0.00031523
0.00031523
0.000303052
0.000303052
0.000241019
0.000241019
0.000202063
0.000202063
0.000232793
0.000232793
3.30641e-05
3.30641e-05
1.34649e-05
1.34649e-05
1.34649e-05
0.000255855
0.000255855
0.000218557
0.000218557
0.000116917
0.000116917
0.000288366
0.000288366
0.000312256
0.000312256
3.24652e-05
3.24652e-05
0.000294145
0.000294145
0.000236889
0.000236889
0.000207469
0.000207469
0.00027903
0.00027903
0.000235794
0.000235794
0.000319346
0.000319346
0.000152303
0.000152303
0.00022326
0.00022326
0.000321268
0.000321268
0.000218578
0.000218578
0.000316788
0.000316788
0.000319705
0.000319705
2.02745e-05
2.02745e-05
2.02745e-05
0.000201968
0.000201968
0.000317909
0.000317909
0.00026735
0.00026735
0.000304163
0.000304163
0.000237065
0.000237065
0.000190342
0.000190342
0.000317435
0.000317435
0.000236771
0.000236771
0.000267185
0.000267185
0.000216716
0.000216716
0.000161063
0.000161063
0.000241867
0.000241867
0.000209514
0.000209514
0.000310405
0.000310405
0.000192487
0.000192487
0.000230361
0.000230361
0.000303025
0.000303025
0.00020659
0.00020659
0.00022876
0.00022876
0.000300873
0.000300873
0.000204796
0.000204796
0.000217682
0.000217682
0.000251551
0.000251551