/*--------------------------------*- C++ -*----------------------------------*\
  =========                 |
  \\      /  F ield         | OpenFOAM: The Open Source CFD Toolbox
   \\    /   O peration     | Website:  https://openfoam.org
    \\  /    A nd           | Version:  8
     \\/     M anipulation  |
\*---------------------------------------------------------------------------*/
FoamFile
{
    version     2.0;
    format      ascii;
    class       volScalarField;
    location    "1";
    object      p;
}
// * * * * * * * * * * * * * * * * * * * * * * * * * * * * * * * * * * * * * //

dimensions      [1 -1 -2 0 0 0 0];

internalField   nonuniform List<scalar> 
1924
(
0
-1.85998
-24.5091
-18.454
-3.35156
-20.9172
-22.7463
-22.4081
-23.5263
-13.2
-25.3633
-27.9279
-6.85226
-29.9308
-44.3442
-42.0768
-7.48677
-33.2575
9.3649
-35.5812
-6.04416
-14.4948
-8.30657
-39.0928
-14.9205
-18.2537
-18.4427
-0.492739
-3.88514
4.07157
-9.01243
-15.5063
-3.1064
-7.66859
-2.13012
-9.43238
-15.7695
-4.97374
5.60264
-8.65875
-16.7795
-6.60077
-17.5117
-6.70309
-3.07498
-3.86859
-0.941704
-7.67982
34.2156
-5.36709
3.17848
-7.03013
-14.0364
4.44232
-3.90115
-2.66724
25.5944
-4.37448
-2.6242
-22.6118
-4.46377
-37.7629
-4.2749
11.9536
21.8814
-6.4525
-27.3475
-10.361
-4.06003
0.082457
-6.90366
-35.6073
10.5156
2.99659
2.0087
-5.67648
-9.45813
-0.669798
-5.46617
-1.04146
-36.7847
-19.2258
1.04976
-6.54784
-2.16328
-11.2463
-1.54341
-41.917
8.27889
-6.8863
-25.7919
-20.029
-4.02596
-5.44965
-7.30616
65.5739
-10.7669
-38.1451
-21.6104
-6.5873
-12.7883
-7.03352
-21.0381
-20.6467
-6.31911
-8.82027
-4.98027
-7.67595
-22.6658
-4.50563
-13.2696
-4.19402
-3.71773
4.4475
-5.43868
-6.21766
-12.3285
-43.9735
-13.4377
-7.84897
6.87206
545.408
-5.62773
-6.45382
-30.0359
-8.96288
-6.81654
-2.04192
-4.45916
605.387
-15.2384
-8.39023
-4.32054
2.97162
-7.29827
-6.16011
-5.66921
-4.41605
-41.2569
-4.73383
-4.69352
-31.8761
-3.93966
-3.59461
-18.3908
456.634
-8.71391
-7.42487
-23.0467
-13.6724
5.65987
642.634
-7.79643
-13.1205
-20.2062
-10.073
547.286
-10.4962
-18.566
-9.4617
4.00461
-4.57657
-18.1761
550.756
9.22818
-7.19611
-10.738
591.106
-8.7821
-4.67946
-3.5367
-21.1834
-9.5779
-21.1413
-4.85659
-10.0195
5.50989
-6.54472
-7.98399
-20.9277
-11.9967
-47.4937
-1.53438
-11.888
149.497
-2.35044
-8.39051
-13.0055
-12.2636
1.15364
-8.85855
-21.6573
-20.4169
-21.2906
-13.3446
647.231
-14.6581
-10.9432
-11.4079
-10.7112
-3.77758
-3.59365
-6.80239
-22.3926
-3.58501
-12.4024
-21.2369
-8.19567
-8.10626
-4.43177
554.645
-4.89264
-44.6939
-13.3185
-13.4701
-5.71587
-23.351
-9.94241
-22.5669
-2.36928
-10.6259
-3.12634
-7.51648
-44.0493
-24.7006
-15.1577
-24.2417
-20.0447
-15.6906
-11.458
-3.51478
-23.1563
-12.0057
-5.40539
-16.6651
3.35916
-48.13
-24.2901
-8.68622
651.103
-48.1357
-12.3362
-48.0946
-8.34737
-9.59421
-8.06158
-26.6573
-11.7144
-2.25613
-16.0168
-4.36611
586.824
-16.1872
-5.85066
-13.5356
-47.8101
-18.741
-12.9947
-11.3708
-25.5486
-11.8367
-13.3002
-21.3668
-5.49422
-15.931
2.16758
-5.2747
-8.9507
-4.36985
14.2593
-11.4243
6.35177
-3.80997
-13.8521
-23.3197
-39.5081
-28.9475
-17.0323
-8.0807
-11.9489
7.38401
689.764
-24.1352
-18.042
33.9273
0.932821
-27.4858
596.6
-26.1234
-12.868
-16.5585
5.04958
-18.24
-51.6201
-5.93021
12.56
-47.0656
-8.29913
-6.68246
-51.1327
675.196
-14.6518
-51.2859
-23.8467
-30.2979
-15.61
-5.14904
-50.6113
-13.5065
-2.3702
-8.05105
-13.3412
-18.4235
-14.3843
-18.0177
-5.90395
-12.1855
-29.0533
-19.9321
-13.0361
2.86183
-12.1777
-19.5695
11.9543
-17.5601
-30.0368
-13.2622
-14.6597
-14.3181
-32.2019
-12.3059
-25.1385
-13.8788
-33.7009
-1.77272
-18.716
-23.0685
-20.5653
-18.6741
-22.2776
-25.4783
6.08335
-15.0706
-8.62573
-49.8456
-37.8728
-3.77428
-30.7907
-12.9435
-16.7795
-17.5175
-6.66474
12.5184
-54.5754
-8.17396
-17.035
372.096
-30.1067
-13.6588
179.315
-19.785
-53.7468
-54.3639
-24.0175
-16.9457
-21.1964
-14.8988
-11.3921
-19.4977
-21.0264
-52.7677
-13.4421
-14.7224
-50.3067
-20.1119
-6.25011
-52.8113
-48.2576
-15.8116
-33.113
-35.5161
-13.0209
-13.9749
-15.1268
-12.551
-51.1146
-0.113846
-23.9598
-19.7187
-24.1253
12.6526
-14.3297
-14.7547
-27.5355
-19.7795
-3.9124
-18.7627
-15.5541
-36.092
-41.5133
388.344
-7.28182
-8.798
-5.31425
682.943
-23.2228
-47.1086
-28.2447
-14.2518
-18.3076
-20.2113
-14.0645
-33.0818
-24.5927
-20.4448
-23.6416
-38.2167
-56.1228
-12.6865
-15.5761
-56.5279
-12.2026
-44.912
-8.14838
-17.0482
-56.0884
-20.419
7.55349
-15.0546
-21.3972
-23.7593
-35.12
-22.3395
-13.8984
-21.0222
-21.0025
-55.1941
-3.98279
-21.6413
-16.4151
-12.9084
-19.9438
-15.4742
11.5223
-30.0837
-25.7986
-21.1372
-4.61496
-15.717
-24.7587
-49.7564
-14.8284
-17.1602
-39.5404
-19.4077
-16.8845
-52.1797
-54.0041
-13.9373
-36.6753
-26.4222
-15.7725
-6.00747
-13.8449
-10.0589
-25.4003
-26.2005
-21.2282
-24.5478
-4.06924
-18.4193
-14.2982
2.85109
-50.1619
-11.6333
-22.0858
13.7129
-33.8493
-31.7085
-42.7666
-21.6295
-23.3469
-23.2923
-26.9077
-15.4851
-17.7532
-21.0516
-49.2263
-22.4142
-25.9678
-4.10917
-21.9412
-14.1523
-18.8086
-57.3379
-45.0654
-34.1174
-23.7476
-20.5478
11.6307
-57.1501
-52.3937
-12.8931
-16.6257
-8.30999
-23.6924
-56.5872
-19.3679
-14.9944
-55.5383
-14.4677
-41.6253
-23.7294
-17.0969
-24.1709
-24.1664
-16.2664
-17.7373
-25.0097
-40.2176
-13.9265
-55.5508
-34.978
-54.0108
-17.8862
-18.669
-1.21245
-3.37974
-18.8866
-23.1828
-13.6995
-36.9273
-14.7615
-11.9617
-10.4104
-24.9584
-22.1866
-12.4497
-6.77848
-17.7802
-15.6707
11.9819
1.24516
-11.1768
-50.1411
-21.9689
6.86934
16.7406
-28.5532
-41.9391
-21.5549
-23.6938
-45.528
-14.3629
-20.3923
-12.6029
-4.89548
7.31925
14.9237
12.1565
-17.1552
-13.8272
-6.63846
-23.6922
-13.3623
-11.7471
-31.0873
-19.4712
3.85231
-15.4126
-47.5028
-22.9242
-19.8351
-23.2676
-5.96379
-23.2232
-9.8504
-8.60978
-56.9542
-13.235
-16.4394
-34.5076
-27.8632
-23.1034
35.6237
0.95403
-57.1368
-12.1051
-41.5248
7.78088
-18.8653
-14.2336
53.2577
12.8932
7.36326
-56.0925
-23.1827
-17.1606
-25.0713
-13.5625
224.936
-56.8093
-23.4416
22.5962
-14.9898
-38.0412
-19.2579
-23.1564
-11.2946
-11.5967
-18.4119
-52.5837
-10.2504
-28.9125
-16.1229
-29.0792
-18.6677
-10.5439
135.421
17.895
-53.3967
-38.0769
-22.02
-17.2934
-25.5618
0.235518
-4.10509
-31.1064
-19.9196
-13.474
-40.6195
-21.3
-20.6904
-13.2768
-14.8206
213.058
-20.7413
16.0506
-22.4212
-51.3711
-23.8606
-23.3759
-15.5343
-19.7124
-22.851
-54.9139
-16.9303
-49.8777
-22.8576
-13.2505
-13.971
-23.0067
-15.7038
-19.424
-8.63515
-22.4621
-13.6731
-19.3905
-19.3427
-13.9373
-12.892
6.84106
-4.06208
-46.6287
-22.125
21.7059
-18.3413
-37.8045
-14.47
-15.3498
-16.1984
-31.1946
-3.23688
-34.3534
-53.5189
-43.7111
-27.9612
-45.3298
16.6754
-12.8842
-56.0243
-56.1371
-25.4119
-22.2438
-17.8584
-25.2432
-21.1415
65.6326
-54.6679
2.44522
7.52525
-26.0966
-24.4136
-20.4775
-13.9347
-55.3109
-13.1409
-12.8666
-15.9177
-16.9315
-37.6624
-12.6204
-21.5122
-9.27525
45.5015
-22.0337
-23.8588
-20.0291
-53.3798
-15.09
-14.3277
14.9456
-23.4309
152.92
-19.3452
-20.3345
-22.4335
-13.5542
-54.5235
99.6633
-10.098
-31.2858
-27.451
-10.611
-42.7029
-5.70461
-6.38319
258.821
-10.7027
-49.6755
-21.8129
-13.9988
22.4842
-16.6262
-21.7755
-18.8662
-20.1128
-23.3249
-25.4543
-12.9896
40.2683
-20.9675
-34.3412
349.932
-27.8191
16.1443
-15.5024
-11.8126
-14.9118
-47.3501
-17.8484
-22.0589
-31.2741
28.1047
21.5446
-20.6602
9.03769
210.301
418.754
-28.0542
2.80252
-19.9929
-47.284
-42.2738
-17.3354
-16.6607
-19.9798
-16.0222
13.3064
-21.0095
-37.2675
-20.5794
17.6695
-22.973
-10.0078
-53.7555
-15.4239
-19.646
0.562285
-23.7814
-11.8227
-20.4181
-29.4698
-7.66031
-40.5593
-1.58378
-46.899
-22.0711
-53.5046
14.0538
-13.4672
-13.7362
-53.7564
-22.2392
-16.6835
-39.4256
-52.9993
21.3502
-22.664
-14.132
-4.53499
-10.9957
-18.8966
16.9124
-27.6077
-51.6776
28.9602
-34.3793
-20.7403
-15.8406
-4.40365
-50.908
18.3525
356.625
-14.5572
32.2754
-22.6614
39.8782
-18.3345
-13.463
-12.5691
-21.6639
-51.7289
64.1943
-17.054
-49.0031
-16.4509
-18.8521
-20.0518
8.1889
-41.9089
-33.685
-15.2401
-20.3295
-17.4082
-20.0282
-17.298
-19.8361
-44.9821
288.729
-31.9221
377.772
-20.9016
-19.4859
481.795
-13.7023
-21.2999
-17.067
-27.9657
-14.0027
-31.9736
-17.5793
109.052
-24.2235
-39.1862
-23.1027
-12.9626
-15.6057
125.458
-11.9485
-18.4289
-50.7243
-22.6997
4.37475
-9.57243
-21.1384
122.112
-19.053
89.457
-14.0819
-42.4077
-14.4198
-7.96474
-28.868
-16.0797
8.22307
-30.4853
-6.37536
36.4125
-22.3795
29.4499
-15.0047
-24.8931
-0.727798
-20.4572
-18.3037
-20.2507
-35.0109
-15.721
-16.2517
-16.7097
-37.7504
115.818
-46.5044
-50.9206
-50.6279
-49.8539
-33.4018
-11.0386
-45.2999
53.8991
-1.54529
-15.5359
381.782
-19.7733
-17.8858
-50.0236
176.759
-20.501
-49.4984
-20.1845
14.0255
-48.7521
-39.2954
349.145
-18.4619
235.155
-19.4528
-15.9751
-18.0985
-10.001
-43.0201
-17.3259
264.789
-46.2073
9.73507
-34.9428
-22.1233
-35.3832
-20.9773
-16.525
-30.6036
-18.8818
-13.7685
-21.2539
-10.0286
-18.8344
-14.2563
-21.2081
-16.9801
-25.0287
2.92046
-44.3423
3.04664
426.251
-21.9702
-17.1568
-20.4319
176.745
-37.3976
-12.6147
-18.6531
14.5377
-14.5799
-15.3332
28.5223
-6.10789
-6.07547
130.104
-23.6645
27.5409
-40.8641
-15.195
-40.1061
303.065
-18.287
-47.6524
-17.9426
-19.8303
324.841
-30.8249
-15.8347
-15.4635
-19.6507
-45.4401
24.5111
-19.5619
-20.1493
-13.0468
-8.11828
-34.8386
-20.3706
-7.32166
-16.3185
-19.109
-12.9422
-17.7391
35.339
36.3465
-14.071
-13.805
-17.2205
-38.6743
-16.8615
-14.3688
-22.0825
-13.6755
-15.1962
-16.7259
0.222109
-18.9323
300.003
-13.6199
-20.811
-15.0897
-10.3927
-40.7965
-39.4549
-46.7294
37.8717
-17.4432
305.071
-29.2224
-20.5045
-46.192
-45.123
-20.1067
-20.4596
-15.7909
-18.5146
-46.6393
-43.4055
-46.8089
160.313
-28.3768
-35.0013
-18.1484
-16.2253
-13.8806
-1.08711
9.05636
23.9709
-9.02032
-44.0611
-12.6583
456.645
418.815
-16.6938
-41.129
20.1198
-18.3495
-9.30768
-38.5755
-43.7509
-11.5921
-26.1242
-19.2737
-41.8262
-19.7307
-19.5941
-17.2427
-17.2688
-45.9528
164.362
-17.9695
-30.0536
-36.3793
-19.0286
-45.4598
-11.9165
-14.1985
-19.5286
-3.72675
-14.5969
36.8719
65.9115
-32.7785
-42.6797
-18.7699
-40.1983
410.272
-33.5247
405.177
-17.7733
-15.5451
-19.5853
-14.3969
521.498
-19.7394
-15.7393
-18.6722
0.712735
-18.0542
-16.4172
157.38
96.7304
-13.7072
-39.423
-19.2524
-31.0683
-18.9998
-17.0011
-15.9351
0.115769
9.84854
-18.3784
-16.9933
-40.7635
-26.2951
-12.9945
316.267
-14.1575
-17.5776
-12.3066
0.217716
-19.1106
202.623
-9.75068
-19.1792
-12.553
-18.9493
286.152
-10.5376
396.75
394.719
-35.6971
39.7078
-18.2557
-42.5844
-15.687
-18.6784
-19.1112
37.3238
-24.8008
-42.4311
-42.1748
-8.71583
-14.5965
-15.8183
-14.2351
-39.2136
-17.404
-9.41705
-36.6
-16.2042
-13.983
-18.5833
-41.6934
-40.8931
470.164
-16.8417
-21.6066
448.772
475.397
-5.24968
-17.9847
-16.5953
-18.573
-17.3476
16.8514
334.818
-13.4722
-39.951
-34.3923
-14.0486
-41.6191
-42.5591
123.819
-9.32214
15.335
-18.1096
-19.1733
469.175
-23.5624
-18.6021
125.391
445.642
-17.1725
-36.1174
-17.6596
-42.4636
-13.4735
-11.5275
417.991
-39.5496
-12.6605
-14.8321
45.2999
-1.27091
-10.5047
-9.10898
-6.59501
-29.3593
-12.6203
-18.4383
-13.3869
555.914
-18.3215
-18.5537
-18.3182
-28.971
-16.8709
-18.4663
45.655
26.6884
-16.7571
508.478
-18.1771
-16.3
80.8504
-8.50175
-38.3229
-13.7195
-13.8033
-10.496
-16.7211
-18.2585
339.707
-33.2221
-13.5361
-17.1986
-40.6872
319.887
-26.3054
-8.57009
48.4877
-20.2688
-18.1352
-38.3795
4.79425
-5.47313
-18.6598
-18.3256
-17.3828
27.5348
-36.376
253.168
30.3562
258.33
-33.3449
-38.2088
-18.7413
-18.7739
-38.1971
-14.9083
-11.9105
-17.9145
-13.2838
-9.14721
-12.5668
-41.8419
-10.5999
-11.5097
520.845
551.942
-32.4297
-17.6723
-16.1315
-15.2608
20.4249
-17.8121
-16.6199
-10.7593
-15.9158
-7.86618
38.9388
-38.2166
64.6469
634.371
-14.7237
-8.92498
-15.9829
541.097
109.215
-18.6739
277.449
-11.5413
-16.6403
-13.2675
-38.3838
-17.738
-37.9188
465.022
-0.464598
-38.8383
-17.5771
-29.9245
-17.5785
-11.6345
432.063
59.5114
-7.56777
-11.5861
570.115
-8.91535
-38.4834
-17.8044
-24.4502
-12.0865
-17.6448
-9.03937
-16.563
-7.89259
456.113
-10.4111
209.721
-14.4049
-21.7243
-18.0055
-18.3116
3.23551
-18.014
-18.0427
520.287
-38.315
-7.69063
-38.6989
-7.44831
0.967865
-13.6428
-17.3107
-12.3827
1.29491
13.9791
-18.3506
-34.1052
-3.19673
103.675
-9.21006
-11.1752
237.927
-12.7648
-7.04305
-7.64943
-17.2922
-16.822
13.3299
-10.3336
-34.2213
-8.9484
-7.82266
-36.7498
-12.1228
-16.8048
-18.0607
223.449
-34.5149
294.836
-33.7133
-20.0875
-14.2356
298.864
-11.8411
-7.80148
576.814
-14.6749
-6.94766
34.2535
-7.47761
-18.4832
-15.6
-38.1959
165.368
-20.6566
-6.63098
-20.3936
-25.0344
269.016
167.044
550.741
334.477
-6.48963
594.838
-16.9007
-27.3446
-17.0692
-6.97842
-24.8513
-11.7968
73.3837
-18.5325
22.8301
20.0067
-31.657
-18.5913
445.399
-26.5795
-17.2296
27.8592
-16.9262
-15.0074
288.583
-8.62265
-9.42834
642.616
255.478
88.2142
-17.0611
-36.3418
649.212
-6.76883
-17.2007
45.9334
-15.5729
-6.36981
-15.6415
-34.6129
329.402
-15.3264
-18.161
126.276
-6.25372
-7.79865
696.434
-30.7417
-15.994
-18.1597
461.213
-8.23303
-17.8254
-10.273
-17.42
-15.2377
-10.4692
-12.8784
-17.5928
-8.30512
-12.5257
62.9485
-7.49423
-30.2725
-17.9612
403.119
-9.36723
610.723
513.669
-15.86
-37.7368
-33.7256
-17.2998
-17.9893
-7.18181
233.731
-6.46729
-9.67997
-37.5839
-30.4247
-22.464
453.676
-6.2359
-35.9639
-6.08207
-17.9142
-20.9367
-10.8787
-17.2297
-20.2427
-16.5782
-17.1925
-8.28613
-35.3763
-44.7176
-9.17854
-29.5472
-26.4716
-17.307
-13.7264
-17.2926
-16.3907
0.885256
-18.507
-17.2212
-11.1054
-10.4889
42.9808
-19.5929
-36.8223
-16.8751
-33.0669
-18.5801
-16.6036
296.788
-28.1364
428.899
-31.6513
396.218
-7.83827
718.68
-6.18644
-5.78718
-27.0331
-16.356
639.355
-21.056
-7.21893
494.379
692.416
676.25
-2.91917
-18.482
-29.6332
-33.9407
229.852
-25.9451
-25.6762
101.153
-9.29478
627.565
-19.1214
-20.5148
-6.77508
-20.3626
-16.5927
577.348
-31.5699
-17.4363
-13.8852
-18.31
-27.5912
-16.8731
286.583
-8.76606
-19.6499
61.4653
-21.2553
-10.0042
-3.86771
-19.1912
-23.3087
-13.6182
-9.02924
-5.75347
-14.4658
-20.5716
-23.094
290.194
-19.2229
-18.4182
-16.5087
-13.5157
-19.9851
-22.1467
-16.7817
-21.5419
-18.7802
16.0061
278.188
172.58
-17.9334
-15.8457
-8.21906
-17.3359
-12.7617
-20.567
627.049
-8.43363
-18.4258
-19.0214
-10.1906
418.947
465.637
214.259
-17.3757
-15.5462
-9.50594
742.773
-23.8355
-21.0813
-19.6945
-21.3526
-17.3539
-12.4672
-24.9909
-7.98563
-11.137
-6.34859
-26.4658
-16.9946
-20.7096
-16.2661
710.438
-6.09584
-5.42494
-6.86876
395.657
-28.1054
-27.1528
-19.2895
-18.9772
-32.5235
-19.2528
-16.4952
-30.5508
-19.9174
66.5862
-27.3316
-18.5397
-15.8304
640.11
-24.7557
-18.8253
-30.111
77.9132
47.2476
216.507
-21.0554
-19.1727
-20.3046
-18.9776
-5.62679
-11.2922
698.936
745.238
-34.8397
-19.8775
-25.0695
-22.8283
-17.3808
-24.697
-19.5125
-17.2917
-16.2958
-48.7038
-35.0123
-31.965
144.923
-8.69262
-20.7876
-20.2363
-28.8056
-15.9589
-22.3298
-8.49589
-20.2434
487.673
-27.2869
-17.2165
343.927
-20.0109
-13.7836
798.172
-22.3157
-19.0267
-17.5914
-6.80999
-18.7155
-6.4957
-7.88616
-24.8524
-28.7508
-9.06972
-16.2326
-16.9135
-11.0247
-32.6712
-19.742
91.9543
-19.8355
-19.6806
-19.8213
-25.5622
-16.0299
-23.6132
584.543
473.108
-22.136
421.808
-8.6566
-19.2687
-17.187
-20.2491
-19.557
-8.55355
-16.1922
-16.9755
-21.0259
-18.1363
-20.0496
-19.391
-15.1278
621.533
689.762
-19.4336
-23.7562
-14.6628
641.991
-9.14918
-14.0326
-7.51843
-18.5492
-19.7104
-19.5349
-19.056
-16.0622
-18.8572
-19.4614
-19.289
-18.9649
-16.5474
-22.0537
-17.6169
-15.6947
-12.3524
-8.14699
-20.7463
-18.9755
583.436
-19.2539
-16.0758
-16.9992
422.549
283.081
-20.8741
-18.7862
-14.0702
-17.757
-17.5871
-18.5283
-16.5921
-8.57913
-14.0609
-16.2054
-12.1218
-16.3219
-20.3052
-13.5272
-18.2001
-28.3213
-15.3855
-16.1333
-11.8828
-11.0094
-8.31654
-8.26182
-14.0907
-26.1271
-16.009
-9.39931
-18.6921
-19.8771
-20.5481
-18.9698
-19.1215
-14.0559
-16.4398
-17.0351
-18.0822
796.387
-15.8446
-21.0936
-18.8232
-13.9102
-11.3292
-10.225
-18.6526
-18.968
-17.4674
-8.39781
-9.38717
-8.02742
-20.4742
-11.546
-13.5997
-12.2296
-16.2699
-8.4097
-18.7174
-18.5696
-18.5813
-11.9033
-11.104
-17.3626
-18.3113
-12.3535
-18.3326
-10.0488
-10.5482
-18.6797
-29.2328
-11.3397
-11.6627
-11.6159
-11.4759
-10.8674
488.144
621.075
-11.9477
685.141
-11.9424
686.062
-18.6091
-17.57
-8.50448
-16.1583
-17.3007
-14.8094
-16.9809
-20.8598
-14.9364
-15.4967
-13.659
-12.9053
-18.0462
-11.7171
-11.958
-14.7056
-15.6282
-11.6232
-19.0979
-19.1411
-19.5948
-20.2519
-15.8498
-18.6678
-16.5723
-11.0962
-3.91532
-11.9549
-16.1245
-13.817
748.258
805.955
138.883
40.8202
89.2868
808.519
634.791
-13.5096
95.0219
575.404
754.859
355.211
-6.51977
126.481
52.5516
758.837
115.557
-13.7063
306.047
68.6724
-13.0545
257.909
-2.80095
-10.1122
127.426
340.183
275.445
355.406
340.123
337.799
333.547
347.738
346.287
18.4714
86.2376
220.842
510.571
517.276
517.148
204.997
-10.369
-13.7525
503.16
90.9262
84.8265
273.957
222.772
365.987
52.7003
-7.69333
188.042
526.071
468.761
498.239
441.569
394.757
449.6
405.327
387.546
400.408
629.531
522.026
20.4908
-10.9793
292.049
-10.6651
321.047
464.341
36.3456
361.002
-5.57447
453.486
-10.9644
352.603
-4.17467
-0.451227
459.086
-6.39778
286.031
33.1378
445.099
-46.0255
8.18605
-11.2443
365.617
265.721
-46.5089
329.143
81.8902
447.789
-1.29914
-11.0921
-44.3214
185.376
38.4801
682.041
-11.2842
-41.914
6.33933
-47.9764
-11.4912
149.056
-12.0765
-46.0771
74.7619
-13.2665
70.2456
119.288
190.122
191.403
-13.0668
630.546
681.717
-44.2929
)
;

boundaryField
{
    patch0
    {
        type            calculated;
        value           nonuniform List<scalar> 
4010
(
1.77636e-15
1.77636e-15
-1.85998
-1.85998
-24.5091
-24.5091
-18.454
-18.454
-3.35156
-3.35156
-20.9172
-20.9172
-22.7463
-22.7463
-22.4081
-22.4081
-23.5263
-23.5263
-13.2
-13.2
-25.3633
-25.3633
-27.9279
-27.9279
-6.85226
-6.85226
-29.9308
-29.9308
-44.3442
-44.3442
-42.0768
-42.0768
-7.48677
-7.48677
-33.2575
-33.2575
9.3649
9.3649
-35.5812
-35.5812
-6.04416
-6.04416
-14.4948
-14.4948
-8.30657
-8.30657
-39.0928
-39.0928
-14.9205
-14.9205
-18.2537
-18.2537
-18.4427
-18.4427
-0.492739
-0.492739
-3.88514
-3.88514
4.07157
4.07157
-9.01243
-9.01243
-15.5063
-15.5063
-3.1064
-3.1064
-7.66859
-7.66859
-2.13012
-2.13012
-9.43238
-9.43238
-15.7695
-15.7695
-4.97374
-4.97374
5.60264
5.60264
-8.65875
-8.65875
-16.7795
-16.7795
-6.60077
-6.60077
-17.5117
-17.5117
-6.70309
-6.70309
-3.07498
-3.07498
-3.86859
-3.86859
-0.941704
-0.941704
-7.67982
-7.67982
34.2156
34.2156
-5.36709
-5.36709
3.17848
3.17848
-7.03013
-7.03013
-14.0364
-14.0364
4.44232
4.44232
-3.90115
-3.90115
-2.66724
-2.66724
25.5944
25.5944
-4.37448
-4.37448
-2.6242
-2.6242
-22.6118
-22.6118
-4.46377
-4.46377
-37.7629
-37.7629
-4.2749
-4.2749
11.9536
11.9536
21.8814
21.8814
-6.4525
-6.4525
-27.3475
-27.3475
-10.361
-10.361
-4.06003
-4.06003
0.082457
0.082457
-6.90366
-6.90366
-35.6073
-35.6073
10.5156
10.5156
2.99659
2.99659
2.0087
2.0087
-5.67648
-5.67648
-9.45813
-9.45813
-0.669798
-0.669798
-5.46617
-5.46617
-1.04146
-1.04146
-36.7847
-36.7847
-19.2258
-19.2258
1.04976
1.04976
-6.54784
-6.54784
-2.16328
-2.16328
-11.2463
-11.2463
-1.54341
-1.54341
-41.917
-41.917
8.27889
8.27889
-6.8863
-6.8863
-25.7919
-25.7919
-20.029
-20.029
-4.02596
-4.02596
-5.44965
-5.44965
-7.30616
-7.30616
65.5739
65.5739
-10.7669
-10.7669
-38.1451
-38.1451
-21.6104
-21.6104
-6.5873
-6.5873
-12.7883
-12.7883
-7.03352
-7.03352
-21.0381
-21.0381
-20.6467
-20.6467
-6.31911
-6.31911
-8.82027
-8.82027
-4.98027
-4.98027
-7.67595
-7.67595
-22.6658
-22.6658
-4.50563
-4.50563
-13.2696
-13.2696
-4.19402
-4.19402
-3.71773
-3.71773
4.4475
4.4475
-5.43868
-5.43868
-6.21766
-6.21766
-12.3285
-12.3285
-43.9735
-43.9735
-13.4377
-13.4377
-7.84897
-7.84897
6.87206
6.87206
545.408
545.408
-5.62773
-5.62773
-6.45382
-6.45382
-30.0359
-30.0359
-8.96288
-8.96288
-6.81654
-6.81654
-2.04192
-2.04192
-4.45916
-4.45916
605.387
605.387
-15.2384
-15.2384
-8.39023
-8.39023
-4.32054
-4.32054
2.97162
2.97162
-7.29827
-7.29827
-6.16011
-6.16011
-5.66921
-5.66921
-4.41605
-4.41605
-41.2569
-41.2569
-4.73383
-4.73383
-4.69352
-4.69352
-31.8761
-31.8761
-3.93966
-3.93966
0.359765
-3.59461
-3.59461
-3.56076
-18.3908
-18.3908
456.634
456.634
-8.71391
-8.71391
-7.42487
-7.42487
-23.0467
-23.0467
-13.6724
-13.6724
5.65987
5.65987
642.634
642.634
736.375
-7.79643
-7.79643
-13.1205
-13.1205
-20.2062
-20.2062
-10.073
-10.073
547.286
547.286
-10.4962
-10.4962
-18.566
-18.566
-9.4617
-9.4617
4.00461
4.00461
-4.57657
-4.57657
-18.1761
-18.1761
550.756
550.756
9.22818
9.22818
-7.19611
-7.19611
-10.738
-10.738
591.106
591.106
-8.7821
-8.7821
-4.67946
-4.67946
-3.5367
-3.5367
-21.1834
-21.1834
-9.5779
-9.5779
-21.1413
-21.1413
-4.85659
-4.85659
-10.0195
-10.0195
5.50989
5.50989
-6.54472
-6.54472
-7.98399
-7.98399
-20.9277
-20.9277
-11.9967
-11.9967
-47.4937
-47.4937
-1.53438
-1.53438
-11.888
-11.888
149.497
149.497
-2.35044
-2.35044
-8.39051
-8.39051
-13.0055
-13.0055
-12.2636
-12.2636
1.15364
1.15364
-8.85855
-8.85855
-21.6573
-21.6573
-20.4169
-20.4169
-21.2906
-21.2906
-13.3446
-13.3446
647.231
647.231
740.971
-14.6581
-14.6581
-10.9432
-10.9432
-11.4079
-11.4079
-10.7112
-10.7112
-3.77758
-3.77758
-3.59365
-3.59365
-6.80239
-6.80239
-22.3926
-22.3926
-3.58501
-3.58501
-12.4024
-12.4024
-21.2369
-21.2369
-8.19567
-8.19567
-8.10626
-8.10626
-4.43177
-4.43177
-4.36387
554.645
554.645
-4.89264
-4.89264
-44.6939
-44.6939
-13.3185
-13.3185
-13.4701
-13.4701
-5.71587
-5.71587
-23.351
-23.351
-9.94241
-9.94241
-22.5669
-22.5669
-2.36928
-2.36928
-10.6259
-10.6259
-3.12634
-3.12634
-7.51648
-7.51648
-44.0493
-44.0493
-24.7006
-24.7006
-15.1577
-15.1577
-24.2417
-24.2417
-20.0447
-20.0447
-15.6906
-15.6906
-11.458
-11.458
-3.51478
-3.51478
-23.1563
-23.1563
-12.0057
-12.0057
-5.40539
-5.40539
-16.6651
-16.6651
3.35916
3.35916
3.60225
-48.13
-48.13
-24.2901
-24.2901
-8.68622
-8.68622
651.103
651.103
744.843
-48.1357
-48.1357
-12.3362
-12.3362
-48.0946
-48.0946
-8.34737
-8.34737
-9.59421
-9.59421
-8.06158
-8.06158
-26.6573
-26.6573
-11.7144
-11.7144
-2.25613
-2.25613
-16.0168
-16.0168
-4.36611
-4.36611
586.824
586.824
-16.1872
-16.1872
-5.85066
-5.85066
-13.5356
-13.5356
-47.8101
-47.8101
-18.741
-18.741
-12.9947
-12.9947
-11.3708
-11.3708
-25.5486
-25.5486
-11.8367
-11.8367
-13.3002
-13.3002
-21.3668
-21.3668
-5.49422
-5.49422
-15.931
-15.931
2.16758
2.16758
-5.2747
-5.2747
-8.9507
-8.9507
-4.36985
-4.36985
14.2593
14.2593
-11.4243
-11.4243
6.35177
6.35177
-3.80997
-3.80997
-13.8521
-13.8521
-23.3197
-23.3197
-39.5081
-39.5081
-28.9475
-28.9475
-17.0323
-17.0323
-8.0807
-8.0807
-11.9489
-11.9489
7.38401
7.38401
689.764
689.764
756.552
-24.1352
-24.1352
-18.042
-18.042
33.9273
33.9273
0.932821
0.932821
-27.4858
-27.4858
596.6
596.6
-26.1234
-26.1234
-12.868
-12.868
-16.5585
-16.5585
5.04958
5.04958
-18.24
-18.24
-51.6201
-51.6201
-5.93021
-5.93021
12.56
12.56
-47.0656
-47.0656
-8.29913
-8.29913
-6.68246
-6.68246
-51.1327
-51.1327
675.196
675.196
764.976
-14.6518
-14.6518
-51.2859
-51.2859
-23.8467
-23.8467
-30.2979
-30.2979
-15.61
-15.61
-5.14904
-5.14904
-50.6113
-50.6113
-13.5065
-13.5065
-2.3702
-2.3702
-8.05105
-8.05105
-13.3412
-13.3412
-18.4235
-18.4235
-14.3843
-14.3843
-18.0177
-18.0177
-5.90395
-5.90395
-12.1855
-12.1855
-29.0533
-29.0533
-19.9321
-19.9321
-13.0361
-13.0361
2.86183
2.86183
-12.1777
-12.1777
-19.5695
-19.5695
11.9543
11.9543
-17.5601
-17.5601
-30.0368
-30.0368
-13.2622
-13.2622
-14.6597
-14.6597
-14.3181
-14.3181
-32.2019
-32.2019
-12.3059
-12.3059
-25.1385
-25.1385
-13.8788
-13.8788
-33.7009
-33.7009
-1.77272
-1.77272
-18.716
-18.716
-23.0685
-23.0685
-20.5653
-20.5653
-18.6741
-18.6741
-22.2776
-22.2776
-25.4783
-25.4783
6.08335
6.08335
-15.0706
-15.0706
-8.62573
-8.62573
-49.8456
-49.8456
-37.8728
-37.8728
-3.77428
-3.77428
-30.7907
-30.7907
-12.9435
-12.9435
-16.7795
-16.7795
-17.5175
-17.5175
-6.66474
-6.66474
12.5184
12.5184
-54.5754
-54.5754
-8.17396
-8.17396
-17.035
-17.035
372.096
372.096
-30.1067
-30.1067
-13.6588
-13.6588
179.315
179.315
-19.785
-19.785
-53.7468
-53.7468
-54.3639
-54.3639
-24.0175
-24.0175
-16.9457
-16.9457
-21.1964
-21.1964
-14.8988
-14.8988
-11.3921
-11.3921
-19.4977
-19.4977
-21.0264
-21.0264
-52.7677
-52.7677
-13.4421
-13.4421
-14.7224
-14.7224
-50.3067
-50.3067
-20.1119
-20.1119
-6.25011
-6.25011
-52.8113
-52.8113
-48.2576
-48.2576
-15.8116
-15.8116
-33.113
-33.113
-35.5161
-35.5161
-13.0209
-13.0209
-13.9749
-13.9749
-15.1268
-15.1268
-12.551
-12.551
-51.1146
-51.1146
-0.113846
-0.113846
-23.9598
-23.9598
-19.7187
-19.7187
-24.1253
-24.1253
12.6526
12.6526
-14.3297
-14.3297
-14.7547
-14.7547
-27.5355
-27.5355
-19.7795
-19.7795
-3.9124
-3.9124
-3.82833
-18.7627
-18.7627
-15.5541
-15.5541
-36.092
-36.092
-41.5133
-41.5133
388.344
388.344
-7.28182
-7.28182
-8.798
-8.798
-5.31425
-5.31425
682.943
682.943
731.313
-23.2228
-23.2228
-47.1086
-47.1086
-28.2447
-28.2447
-14.2518
-14.2518
-18.3076
-18.3076
-20.2113
-20.2113
-14.0645
-14.0645
-33.0818
-33.0818
-24.5927
-24.5927
-20.4448
-20.4448
-23.6416
-23.6416
-38.2167
-38.2167
-56.1228
-56.1228
-12.6865
-12.6865
-15.5761
-15.5761
-56.5279
-56.5279
-12.2026
-12.2026
-44.912
-44.912
-8.14838
-8.14838
-17.0482
-17.0482
-56.0884
-56.0884
-20.419
-20.419
7.55349
7.55349
-15.0546
-15.0546
-21.3972
-21.3972
-23.7593
-23.7593
-35.12
-35.12
-22.3395
-22.3395
-13.8984
-13.8984
-21.0222
-21.0222
-21.0025
-21.0025
-55.1941
-55.1941
-3.98279
-3.98279
-21.6413
-21.6413
-16.4151
-16.4151
-12.9084
-12.9084
-19.9438
-19.9438
-15.4742
-15.4742
11.5223
11.5223
-30.0837
-30.0837
-25.7986
-25.7986
-25.6494
-21.1372
-21.1372
-4.61496
-4.61496
-15.717
-15.717
-24.7587
-24.7587
-49.7564
-49.7564
-14.8284
-14.8284
-17.1602
-17.1602
-39.5404
-39.5404
-19.4077
-19.4077
-16.8845
-16.8845
-52.1797
-52.1797
-54.0041
-54.0041
-13.9373
-13.9373
-36.6753
-36.6753
-26.4222
-26.4222
-15.7725
-15.7725
-6.00747
-6.00747
-13.8449
-13.8449
-10.0589
-10.0589
-25.4003
-25.4003
-26.2005
-26.2005
-21.2282
-21.2282
-24.5478
-24.5478
-4.06924
-4.06924
-18.4193
-18.4193
-14.2982
-14.2982
2.85109
2.85109
-50.1619
-50.1619
-11.6333
-11.6333
-22.0858
-22.0858
13.7129
13.7129
-33.8493
-33.8493
-31.7085
-31.7085
-42.7666
-42.7666
-21.6295
-21.6295
-23.3469
-23.3469
-23.2923
-23.2923
-26.9077
-26.9077
-15.4851
-15.4851
-17.7532
-17.7532
-21.0516
-21.0516
-49.2263
-49.2263
-22.4142
-22.4142
-25.9678
-25.9678
-4.10917
-4.10917
-21.9412
-21.9412
-14.1523
-14.1523
-18.8086
-18.8086
-57.3379
-57.3379
-45.0654
-45.0654
-34.1174
-34.1174
-23.7476
-23.7476
-20.5478
-20.5478
11.6307
11.6307
-57.1501
-57.1501
-52.3937
-52.3937
-12.8931
-12.8931
-16.6257
-16.6257
-8.30999
-8.30999
-23.6924
-23.6924
-56.5872
-56.5872
-19.3679
-19.3679
-14.9944
-14.9944
-55.5383
-55.5383
-14.4677
-14.4677
-41.6253
-41.6253
-23.7294
-23.7294
-17.0969
-17.0969
-24.1709
-24.1709
-24.1664
-24.1664
-16.2664
-16.2664
-17.7373
-17.7373
-25.0097
-25.0097
-40.2176
-40.2176
-13.9265
-13.9265
-55.5508
-55.5508
-34.978
-34.978
-54.0108
-54.0108
-17.8862
-17.8862
-18.669
-18.669
-1.21245
-1.21245
-3.37974
-3.37974
-18.8866
-18.8866
-23.1828
-23.1828
-13.6995
-13.6995
-36.9273
-36.9273
-14.7615
-14.7615
-11.9617
-11.9617
-10.4104
-10.4104
-24.9584
-24.9584
-22.1866
-22.1866
-12.4497
-12.4497
-6.77848
-6.77848
-17.7802
-17.7802
-15.6707
-15.6707
11.9819
11.9819
1.24516
1.24516
-11.1768
-11.1768
-50.1411
-50.1411
-21.9689
-21.9689
6.86934
6.86934
16.7406
16.7406
-28.5532
-28.5532
-41.9391
-41.9391
-21.5549
-21.5549
-23.6938
-23.6938
-45.528
-45.528
-14.3629
-14.3629
-20.3923
-20.3923
-12.6029
-12.6029
-4.89548
-4.89548
7.31925
7.31925
14.9237
14.9237
12.1565
12.1565
-17.1552
-17.1552
-13.8272
-13.8272
-6.63846
-6.63846
-23.6922
-23.6922
-13.3623
-13.3623
-11.7471
-11.7471
-31.0873
-31.0873
-19.4712
-19.4712
3.85231
3.85231
-15.4126
-15.4126
-47.5028
-47.5028
-22.9242
-22.9242
-19.8351
-19.8351
-23.2676
-23.2676
-5.96379
-5.96379
-23.2232
-23.2232
-9.8504
-9.8504
-8.60978
-8.60978
-56.9542
-56.9542
-13.235
-13.235
-16.4394
-16.4394
-34.5076
-34.5076
-27.8632
-27.8632
-23.1034
-23.1034
35.6237
35.6237
0.95403
0.95403
-57.1368
-57.1368
-12.1051
-12.1051
-41.5248
-41.5248
7.78088
7.78088
-18.8653
-18.8653
-14.2336
-14.2336
53.2577
53.2577
12.8932
12.8932
7.36326
7.36326
-56.0925
-56.0925
-23.1827
-23.1827
-17.1606
-17.1606
-25.0713
-25.0713
-13.5625
-13.5625
224.936
224.936
-56.8093
-56.8093
-23.4416
-23.4416
22.5962
22.5962
-14.9898
-14.9898
-38.0412
-38.0412
-19.2579
-19.2579
-23.1564
-23.1564
-11.2946
-11.2946
-11.5967
-11.5967
-18.4119
-18.4119
-52.5837
-52.5837
-10.2504
-10.2504
-28.9125
-28.9125
-16.1229
-16.1229
-29.0792
-29.0792
-18.6677
-18.6677
-10.5439
-10.5439
135.421
135.421
17.895
17.895
-53.3967
-53.3967
-38.0769
-38.0769
-22.02
-22.02
-17.2934
-17.2934
-25.5618
-25.5618
0.235518
0.235518
-4.10509
-4.10509
-31.1064
-31.1064
-19.9196
-19.9196
-13.474
-13.474
-40.6195
-40.6195
-21.3
-21.3
-20.6904
-20.6904
-13.2768
-13.2768
-14.8206
-14.8206
213.058
213.058
-20.7413
-20.7413
16.0506
16.0506
-22.4212
-22.4212
-51.3711
-51.3711
-23.8606
-23.8606
-23.3759
-23.3759
-15.5343
-15.5343
-19.7124
-19.7124
-22.851
-22.851
-54.9139
-54.9139
-16.9303
-16.9303
-49.8777
-49.8777
-22.8576
-22.8576
-13.2505
-13.2505
-13.971
-13.971
-23.0067
-23.0067
-15.7038
-15.7038
-19.424
-19.424
-8.63515
-8.63515
-22.4621
-22.4621
-13.6731
-13.6731
-19.3905
-19.3905
-19.3427
-19.3427
-13.9373
-13.9373
-12.892
-12.892
6.84106
6.84106
-4.06208
-4.06208
-46.6287
-46.6287
-22.125
-22.125
21.7059
21.7059
-18.3413
-18.3413
-37.8045
-37.8045
-14.47
-14.47
-15.3498
-15.3498
-16.1984
-16.1984
-31.1946
-31.1946
-3.23688
-3.23688
-34.3534
-34.3534
-53.5189
-53.5189
-43.7111
-43.7111
-27.9612
-27.9612
-45.3298
-45.3298
16.6754
16.6754
-12.8842
-12.8842
-56.0243
-56.0243
-56.1371
-56.1371
-25.4119
-25.4119
-22.2438
-22.2438
-17.8584
-17.8584
-25.2432
-25.2432
-21.1415
-21.1415
65.6326
65.6326
-54.6679
-54.6679
2.44522
2.44522
7.52525
7.52525
-26.0966
-26.0966
-24.4136
-24.4136
-20.4775
-20.4775
-13.9347
-13.9347
-55.3109
-55.3109
-13.1409
-13.1409
-12.8666
-12.8666
-15.9177
-15.9177
-16.9315
-16.9315
-37.6624
-37.6624
-12.6204
-12.6204
-21.5122
-21.5122