/*--------------------------------*- C++ -*----------------------------------*\
  =========                 |
  \\      /  F ield         | OpenFOAM: The Open Source CFD Toolbox
   \\    /   O peration     | Website:  https://openfoam.org
    \\  /    A nd           | Version:  8
     \\/     M anipulation  |
\*---------------------------------------------------------------------------*/
FoamFile
{
    version     2.0;
    format      ascii;
    class       volScalarField;
    location    "1";
    object      p_rgh;
}
// * * * * * * * * * * * * * * * * * * * * * * * * * * * * * * * * * * * * * //

dimensions      [1 -1 -2 0 0 0 0];

internalField   nonuniform List<scalar> 
1924
(
12.2195
1.47387
1.33944
-10.4862
0.59253
-18.4496
-19.7376
-19.7807
-20.31
37.7765
-21.9105
-24.5396
-5.40791
-26.3916
-39.3038
-37.4497
-4.70068
-29.4032
209.391
-31.8327
0.855429
-12.1272
-0.986904
-35.5425
-12.4669
-15.4332
-14.4507
1.59165
-1.73989
5.92225
-1.60486
-10.7856
1.80748
-0.195498
29.4852
-1.1729
-10.9778
30.5033
7.4331
-0.0329632
-12.8004
0.324868
-14.7519
2.87995
1.44279
-2.04895
285.293
-5.52135
549.341
-2.82725
9.27724
-5.53718
-10.6015
9.7218
-0.0846613
-0.427602
312.184
0.113963
0.334863
-19.2168
10.3145
-33.1266
18.6024
13.658
90.6495
-4.15851
-20.8787
-8.8181
-2.18263
16.5967
-5.47612
-31.2974
12.3213
5.37048
4.53499
3.34154
-6.71203
1.78287
-3.39755
19.6503
-33.9385
-16.0339
2.80378
-4.6901
16.7065
-4.20561
0.561487
-37.0272
216.844
-5.53779
-19.2695
-17.0226
-0.943857
-0.401293
-5.04444
417.14
-8.20608
-35.3814
-18.326
1.81276
121.951
-4.38412
-17.6105
-17.5546
1.76521
-6.31757
14.6987
1.46351
-19.228
0.651869
-10.2213
-2.20236
111.92
6.18769
-3.30308
-5.0562
106.575
-39.8212
-1.32907
-5.00998
94.1813
732.888
-2.75074
-5.22809
-25.608
0.0967431
2.49775
0.184174
-1.95149
778.623
-12.0924
81.4857
-0.683648
4.77276
-5.13998
-0.54523
7.80966
-2.36581
-37.6246
115.434
-2.47138
-27.5957
193.285
-2.0417
-1.51076
780.29
-2.15861
0.638644
-19.4707
3.43665
7.29892
736.375
1.22186
81.4591
-17.8037
-0.796726
734.766
117.161
-15.3019
-5.55222
5.80937
0.622162
43.7185
738.236
10.8052
2.00367
-0.96608
733.216
-5.83871
-2.13388
-1.86197
-18.6868
-7.10472
-17.9428
-2.56001
-1.89727
7.25974
-4.15965
27.7698
-17.665
-9.72048
-43.4564
1.1628
-5.97118
715.252
47.8126
-4.2721
-10.6431
-9.16263
3.08642
-6.24438
-19.0723
-17.5134
-18.7389
-10.3773
740.971
-12.0944
-3.55943
-7.63471
-6.81125
-2.28854
-0.161295
-2.93943
-19.2461
-1.68293
-10.097
-18.5645
-6.26489
0.188421
-1.04192
742.125
-2.27674
-40.9314
-10.6468
-11.0603
-3.42389
-19.7213
-3.86223
-19.8331
-0.0907853
-8.01381
-1.31352
-3.16398
-40.7439
-21.1747
-12.5631
-20.8927
-16.9849
19.0461
-7.59093
-0.856491
-18.6618
-9.88266
1.63906
-13.8984
15.4953
-44.9122
-21.3424
38.5536
744.843
-43.3717
-10.1547
-44.9419
-6.35239
-3.3466
-6.2614
-22.9263
-9.29706
0.50245
-13.4039
-1.80552
747.353
-0.912216
-2.94331
-10.8334
-44.4582
-15.8478
-10.812
-8.89833
-21.7304
-9.48033
20.8953
-18.1188
-3.26203
-11.9197
4.59518
-1.1852
-6.47451
-0.598546
315.439
-3.2191
7.95787
-2.09416
-10.944
-19.7659
-36.3068
-25.3204
-14.1831
48.6276
-9.90155
218.829
756.552
-17.7354
-3.79974
504.249
3.12856
-23.9752
753.168
-22.1311
-10.6286
45.8302
8.9412
-13.8494
-48.2724
-2.50182
21.4554
-43.527
-6.36925
-4.27051
-47.7189
764.976
49.7902
-48.0686
-20.0788
-26.5315
-10.6537
-3.93466
-47.4584
-11.2642
-0.478406
-6.25579
17.0036
-15.0458
-8.97928
-15.1865
-4.61344
-9.85333
-25.1848
44.2537
-10.449
4.86999
-5.02991
34.6534
14.1269
-12.273
-26.6573
-10.9085
-9.93303
-11.8233
-28.5265
-10.2308
-18.5974
-8.10361
-29.7186
0.499784
-14.8014
-19.5602
13.3838
-15.2565
39.561
-22.1863
8.12974
-12.8158
-6.40111
-46.0576
-33.3941
-2.10625
-26.204
-6.21816
-11.6867
-12.3096
-4.18484
58.9358
-51.1603
-6.45331
-14.1758
721.664
-26.0926
-11.405
441.174
-14.3683
-50.2028
-51.005
-19.769
-11.6338
-8.88653
-12.7113
-7.05336
-15.6027
-4.44052
-49.5499
-10.9848
-10.093
-45.8725
-17.0681
-5.02533
-49.2036
-44.0918
-13.3661
-27.5539
-30.9518
-10.3539
-11.5615
-12.1086
-10.0734
-47.9617
2.08601
-17.6416
-16.7493
-21.1873
23.0877
-9.48638
-12.2206
-21.6476
-16.6271
-0.465737
-14.8968
-13.174
-33.3093
-36.7932
775.774
-4.80878
-3.73177
2.00816
731.313
-19.5912
-44.0868
-23.5884
-10.9466
-13.9578
-16.5283
-11.5602
-28.8479
-21.6031
-16.5494
-19.8199
-34.9754
-52.5006
-10.7423
-12.9454
-52.9556
-3.87461
-41.9545
-6.37127
-11.6061
-52.6472
-17.2929
14.1387
-12.7685
-18.1542
-18.6016
-31.9189
-18.9734
-11.691
-17.3902
-17.8278
-51.818
-1.2583
-18.5081
-11.2038
-10.8379
-16.5274
-12.8432
51.2697
-23.9726
-19.7038
-16.86
-2.21181
-12.3705
-18.2868
-46.0031
-12.6047
-14.3211
-36.7279
-15.0843
-13.9232
-48.9622
-50.2662
-11.8059
-31.9699
-23.0524
-13.3342
-2.46858
-6.54472
-2.86468
-19.0512
-21.3643
-17.2496
-20.6364
-2.10867
-12.5886
-11.7225
4.92262
-47.0083
-3.4418
-18.8173
19.8368
-29.3126
-25.1943
-37.8819
-18.1579
-19.2625
-19.6127
-21.8742
-13.111
-12.0486
-17.7191
-44.9433
-18.9892
-22.5087
-3.01367
-18.5782
-11.7898
-16.0559
-53.7007
-41.9567
-28.4469
-17.6111
-15.7814
14.3118
-53.5788
-48.5841
-9.78125
-13.8127
-6.5404
-19.7372
-52.8507
-14.0504
-12.0884
-52.1075
-11.4789
-38.5803
-17.3873
-14.2532
-18.8735
-19.4923
-13.6864
-14.0753
-20.9263
-35.3747
-11.7167
-51.749
-31.9771
-50.6561
-13.7941
-14.7747
1.04203
9.51347
-15.39
-19.0571
-9.82681
-32.2936
-11.5202
22.486
-8.39072
-16.7487
-18.2179
-3.9667
-2.86451
-11.9495
-13.2325
18.3408
21.2167
-8.5668
-46.9037
-18.5389
9.17886
18.3095
-21.6846
-39.057
-17.7158
-19.9123
-40.5654
-11.5346
-14.6978
-1.14702
8.83803
13.1726
17.469
20.2544
-13.031
-10.8134
3.20847
-19.1016
-9.86524
-8.0307
-27.8575
-16.4476
5.86354
-13.0409
-44.1145
-19.3728
-14.2544
-16.8304
-3.49417
-18.7844
53.3207
-6.69638
-53.3378
-8.33318
-13.8102
-28.6382
-23.7835
-17.5574
145.487
15.6141
-53.376
-6.04536
-38.292
10.3481
-15.3586
-11.3508
408.853
23.9178
22.7853
-52.5406
-14.5149
-14.0683
-17.2049
-9.91698
445.839
-53.008
-19.2322
24.109
-12.4329
-33.2387
-15.8613
-19.8773
-9.46706
-5.81233
-14.972
-48.6457
37.08
-25.5356
-13.5195
-23.3686
-13.3457
-8.66417
378.432
19.3844
-49.9745
-34.9604
-18.8329
-14.4705
-21.1023
2.42804
9.01702
-25.1724
-16.862
-2.7801
-36.3024
-15.2649
-17.4941
-9.92368
-11.6946
443.584
-14.8189
18.5748
-18.8667
-47.9817
-20.0191
-19.1773
-13.1009
-15.7491
-18.8403
-50.9828
-14.1731
-45.6753
-19.2383
-5.47478
-8.74844
-18.1926
110.385
-13.8107
58.8895
-18.1932
-8.99083
-16.2008
-15.6778
0.461187
-10.9161
22.2442
-1.66321
-42.83
-17.7178
24.5143
-15.1822
-32.34
-10.7884
-12.9884
-13.2661
-27.8805
-1.8985
-31.588
-49.5213
-39.9796
-23.4628
-40.9211
44.1101
15.6777
-52.2786
-52.3264
-20.7639
-16.5171
-14.8261
-21.0495
-11.5802
572.113
-51.0514
25.91
9.15852
-21.432
-21.1039
-14.4423
-8.89218
-51.3798
7.34889
-10.1865
-13.119
-14.1087
-34.3344
-6.02857
-16.0408
-3.24616
224.199
-17.1724
-19.895
-14.5116
-49.8089
-12.0122
-9.10773
32.8854
-19.4046
780.568
-15.5471
-17.2346
-18.1928
-11.2547
-50.5279
824.617
-7.48675
-25.1822
-24.3979
334.156
-38.3217
-1.12001
-5.03466
496.602
-8.95505
-46.217
-17.516
23.9664
25.289
-13.5913
-17.2154
-13.5807
-10.3512
-19.5469
-20.945
-4.80121
97.4292
-16.5307
-30.9808
416.221
-24.4484
66.9354
-13.0776
179.097
-9.19051
-43.7131
-12.8769
-16.6492
-26.6636
31.0788
24.8094
-14.8922
14.7627
506.129
780.69
-22.868
5.52139
-11.8657
-42.9439
-38.4416
-13.9363
23.9261
-15.8936
-12.8684
294.462
-14.4097
-31.6135
-15.5809
25.5902
-18.8185
-7.86142
-49.5513
-13.063
-14.2389
653.957
-19.7553
-5.77986
-17.2634
-24.687
-1.80041
-36.2851
0.682425
-42.617
-16.2904
-49.3765
22.0532
-4.13194
-12.0032
-49.8133
-18.0172
-13.3508
-35.6928
-48.8586
82.8853
-17.3936
-9.38183
8.55757
-9.18317
-11.7466
24.7187
-24.4855
-47.5486
30.3947
-29.0665
-16.3073
-13.2587
-1.86382
-46.6985
28.7395
454.385
-7.785
861.881
-18.0728
85.2363
-11.3275
-9.75452
6.70823
-15.7711
-47.6043
126.245
-6.70258
-45.1999
-12.9208
-14.2523
-15.5544
769.683
-36.7366
-30.263
-7.83684
-15.8584
-11.7547
-15.9089
-14.4277
-15.2088
-40.9117
707.289
-28.2141
494.88
-13.7767
-11.9819
726.729
-12.0437
-15.5918
-12.9224
-21.5929
-11.045
-27.1913
-7.10141
832.004
-21.172
-33.4513
-17.0582
-2.14559
-13.181
371.081
-9.26432
-13.7924
-46.5321
-17.0795
7.06583
-1.29036
-14.5724
392.185
-11.659
887.653
-8.35494
-38.3966
-11.1682
-2.99185
-24.4159
-13.4478
11.6331
-27.2203
-1.17648
686.984
-18.0107
36.3221
-7.80595
-19.4463
2.64464
-15.629
-11.1537
-14.4593
-31.1713
-5.16191
-5.89391
-13.1005
-33.9407
1080.74
-41.3171
-46.574
-46.0468
-45.4188
-28.2961
31.5479
-40.8912
997.554
1.38444
-10.9287
587.553
-15.846
-10.9019
-45.3336
581.366
-12.2057
-45.3087
-13.9484
22.1234
-44.3922
379.265
605.491
-10.6126
667.745
-12.5328
-13.4228
-14.9597
-6.45561
-38.33
-13.6782
775.041
-42.3326
358.59
-31.2203
-15.9413
-30.503
-15.1745
-13.3917
-24.1947
-14.6707
-12.0436
-12.947
-7.8971
-14.088
-12.3239
-16.7345
-6.37026
-21.9065
519.111
-40.1792
58.2093
547.057
-15.7248
-13.4479
-11.9271
957.302
-32.0881
16.8611
-11.3566
70.7039
-12.4525
-10.5906
724.286
-0.747711
-3.86605
971.088
-16.4597
251.342
-36.9927
-8.39487
-35.6197
609.258
-10.9418
-43.308
-12.9848
-15.6927
707.713
-27.4775
-8.53377
-12.6183
-15.5832
-41.0282
31.6199
-14.5465
-11.5721
-5.20106
-5.38117
-29.6624
-11.6552
47.1096
-13.7024
-15.2177
-2.17199
-14.0145
37.9817
37.882
-12.2134
-4.85534
-9.31241
-34.7242
-14.0514
-12.3078
-18.3087
-12.017
-10.3885
-11.9183
200.674
-15.1112
724.489
-12.094
-13.9508
-12.6038
-8.7756
-35.8821
-36.0917
-42.0356
65.7889
-14.3618
789.165
-21.956
-15.3488
-41.598
-40.6879
-12.9691
-15.7402
-8.60985
-11.1017
-41.7884
-36.7545
-42.0404
676.048
-24.8376
-31.3777
-9.39162
-13.0324
-3.06137
0.834058
10.9379
222.97
48.2758
-39.752
-7.83212
550.17
589.031
-13.9502
-38.1416
32.3937
-11.1255
-4.17765
-33.5786
-38.9701
-0.6083
-18.7849
-14.8247
-37.6705
-12.0551
-15.307
-9.55495
-14.3284
-41.4092
948.496
-14.1938
-27.1347
-32.1617
-14.9989
-40.2227
-0.996703
-12.2746
-10.5825
28.1674
-12.4694
43.0813
896.464
-29.1694
-37.9865
-14.8038
-36.3829
746.179
-27.5566
746.021
-14.4973
-13.2187
-13.4064
-3.53424
568.204
-13.601
-13.105
-11.2897
11.2685
-10.4405
-10.3632
893.844
885.875
-11.9824
-35.6358
-14.141
-23.6958
-13.9001
-14.1936
-10.9978
3.59761
19.5348
-14.1319
-8.11862
-35.7514
-23.4457
-2.02471
715.015
-12.093
-14.549
0.298348
5.14363
-14.3393
447.239
-4.88833
-10.5385
-7.62183
-14.0595
737.621
-5.59346
428.387
428.72
-31.3546
690.609
-13.6411
-38.1851
-13.4267
-14.5204
-10.2051
486.274
-17.2228
-37.706
-37.8651
-5.92028
-3.90265
-13.3589
-9.02608
-35.4086
-12.3965
-0.234505
-30.8188
-11.3361
-12.1254
-14.4102
-37.1224
-36.5176
776.528
-11.9708
-13.9748
501.147
709.402
22.1766
-13.5851
-13.4231
-14.3799
-14.4126
24.2444
1099.65
-2.55445
-35.8215
-27.2128
-9.04938
-34.8246
-37.6618
923.87
1.90743
41.8884
-12.8078
-14.044
529.601
-18.7316
-14.4839
920.056
838.19
-11.7089
-32.2722
-13.8153
-37.8671
-8.89202
-6.56444
861.134
-34.9249
-7.67149
-8.43271
49.5887
0.711685
-5.51075
-3.86029
-2.21181
-21.7896
3.30255
-5.98428
-9.93723
602.62
-13.4726
-13.953
-13.332
-23.8108
-13.8525
-13.9285
47.4854
31.9992
-11.6081
780.516
-12.5931
-12.1174
661.482
-0.348882
-31.7493
-7.41242
-11.6537
0.716388
-12.7111
-12.8273
767.955
-29.2648
-8.37064
-10.9958
-33.9876
906.548
-18.6393
-2.25164
235.182
-14.0158
-13.5611
-34.0789
113.999
-1.21103
-12.1861
-13.6523
-14.0323
217.732
-29.3998
929.714
347.721
457.637
-27.8551
-33.9764
-12.7596
1.06518
-33.7641
-9.67818
-6.71867
-12.6797
-8.81088
2.20647
-10.4445
-35.2731
-5.47226
-3.87087
827.549
797.455
-24.8606
-14.1886
-10.3093
35.4514
66.0875
1.25421
-1.96895
-5.56782
-12
-2.7248
45.4333
-33.6235
559.681
781.484
1.01947
-3.80193
-11.7601
590.191
728.746
-12.8007
901.242
-6.82639
-13.353
-11.1916
-33.6701
-13.1172
-33.4148
824.654
3.68907
-34.8699
-11.8754
-22.2572
-12.6454
-5.62647
796.459
257.912
-2.32411
-5.53798
693.116
-3.72638
-32.6623
-13.3078
-17.6095
-5.78382
-12.0188
-3.71991
-13.149
-2.70027
767.067
-1.06985
821.97
-8.32475
-16.2608
15.7823
-14.7422
13.6559
-12.8855
-14.2435
772.264
-31.3336
-2.3728
-34.7321
-2.1834
4.44059
-9.31216
-11.0117
-9.43505
5.6398
298.59
-12.9135
-29.6757
-0.960464
552.011
-3.82625
-4.95573
431.055
-6.52924
-1.72222
-2.2664
-9.59756
4.78787
22.6437
-4.26445
-29.7257
8.03149
3.79497
-29.6742
2.19507
-10.2821
15.401
905.819
-30.2177
911.456
-26.4846
-14.7799
-10.5447
781.834
-7.82737
-0.418088
600.167
15.7245
-1.56383
223.929
-0.774727
-14.7273
-9.20501
-33.5303
531.609
-15.9356
0.802627
-14.9245
-18.9834
1102.16
911.137
857.549
764.421
1.40896
840.466
-12.1763
-19.5936
-12.5909
-1.42753
-19.1399
16.6038
486.268
16.5332
28.3886
26.1211
-24.3339
-12.313
758.309
-21.529
-12.6844
120.446
-11.4041
185.666
777.982
89.6506
2.15289
765.617
754.606
660.654
176.687
-30.15
776.262
-1.31306
-13.1933
51.5273
65.6095
0.943103
187.812
-30.2507
1014.05
259.874
-14.4669
697.395
1.61508
-0.123768
779.89
-25.3616
319.654
15.7622
864.962
3.51128
4.17337
-2.844
-13.4935
-8.69229
-4.18754
-6.155
-11.2677
68.2966
-6.27478
150.257
-1.50649
-25.7762
17.7376
890.113
-1.67889
643.986
763.353
373.91
-32.3302
-29.0843
8.37091
-14.1915
-0.0771363
686.14
1.54321
-2.3739
-31.8726
-26.0015
-17.0465
891.623
0.401735
-31.8522
2.04385
-11.6593
-15.4356
7.86165
172.52
15.1734
-11.9046
157.3
3.01946
-28.3017
-38.3685
-1.50662
-24.9375
-20.0726
223.394
-7.40227
-10.8352
-11.5126
117.689
-2.81283
-13.4874
-3.943
-4.13461
49.2935
15.2972
-32.7307
-12.1772
-25.8403
-12.9075
-9.88117
742.567
-22.4249
746.515
-25.6729
887.597
0.665404
782.336
1.58092
1.7789
-20.9961
-8.45965
766.406
14.9013
1.55422
748.313
815.411
737.754
6.87041
35.2613
-24.9397
-29.2257
739.978
-21.3433
-21.0267
382.532
-2.78162
873.304
-13.5063
14.8389
0.106851
-12.7454
-10.6771
884.307
-27.2733
194.913
66.8792
-1.63284
-23.0963
-12.0898
732.202
185.061
-14.0093
97.1327
112.477
-3.49167
201.629
-12.2178
-17.9238
69.5406
-1.7714
2.55874
184.568
-15.4915
-18.4042
890.265
250.007
310.066
-11.7603
-11.0642
-14.3208
-16.6956
-12.7908
-2.27686
-13.0603
140.354
1068.61
1075.98
364.279
-10.9032
0.55404
65.4326
-5.30615
-13.8099
754.362
-0.950725
-13.3156
-13.4961
-2.67991
896.076
898.885
723.508
386.644
-8.50551
-2.91507
804.27
-19.2121
-16.0018
-13.8921
-16.5493
-12.4597
66.3163
166.62
0.891166
67.3188
159.42
-21.218
368.981
-15.5666
-12.3396
773.833
0.561504
1.2324
-0.883098
893.451
-23.6765
-21.9626
-13.7121
-3.40118
-27.6399
-14.4256
-11.1217
-25.509
-14.8197
178.384
-22.3346
-13.6449
-8.24435
890.726
-19.7981
190.564
-24.4964
756.916
52.3093
725.756
-15.8877
-14.1706
-15.0343
-6.56055
2.33425
73.7322
762.592
865.445
-28.1015
-14.5439
-19.884
-17.4505
-12.4159
-19.2421
-14.0507
-11.4735
-11.013
-42.2452
-28.3348
-27.7273
827.156
-1.91907
-11.5276
-14.4581
-23.9028
0.150337
-16.8876
-1.74579
-14.6099
742.324
-22.2306
365.538
889.491
-14.3357
-6.22284
859.669
-17.129
-6.513
53.1272
0.961141
-13.6513
0.945441
-1.82602
-19.599
-23.869
-1.5083
-6.24129
-11.6927
-3.42263
-27.8081
-14.2802
635.204
-13.9125
-14.0007
-14.1894
-16.7191
17.2793
-18.5615
880.792
863.069
-16.8988
740.115
-0.941536
-14.0861
-11.5635
-14.5978
-14.0311
72.0923
-10.2838
-11.2143
-15.6464
-13.0349
-14.5526
-13.8159
-10.0953
748.845
753.418
-13.9718
-18.7615
-9.54354
832.995
-1.73535
85.1548
-1.46475
-13.1691
-14.1359
79.6526
-13.8085
398.934
389.968
-13.9355
-13.2936
-13.8957
-11.8255
-12.7015
-7.39273
-8.70694
-1.54365
30.5891
60.3179
-13.3261
855.396
-13.3325
-10.6917
-12.0221
740.829
728.673
-15.433
-13.2592
-8.128
-11.9424
-11.708
-12.8087
-11.2525
-1.74749
-8.33484
-11.5791
-6.65494
-11.0745
76.0742
-2.35904
-13.1747
-23.3094
78.9341
84.1813
-6.57768
89.2933
-0.370693
-2.16487
-8.69343
-17.4112
-10.5622
2.48229
-13.5591
-13.835
79.7535
65.0066
-13.796
74.3643
262.306
228.682
-12.5039
844.14
-8.95723
80.2838
-13.3052
-8.43058
-1.18803
2.27216
-9.74798
-10.3645
-8.6533
-0.361403
9.48883
0.166041
82.2295
-1.21378
-7.89809
-6.74858
-11.4468
9.9111
-13.0069
-12.9233
-13.1275
-6.29047
-5.14934
-12.398
-11.2755
-6.87418
-13.2633
11.1037
10.8531
-13.4184
-23.5966
7.01104
10.6563
13.9899
2.43035
-0.614065
742.768
748.387
-6.28233
748.797
-2.59301
749.718
310.742
315.321
0.867944
276.558
271.905
50.842
93.2632
317.554
387.412
16.9768
-4.85116
-3.99741
-12.167
-5.61997
-5.80617
-5.79765
-6.82043
11.0736
-11.7495
268.657
281.925
299.484
157.058
168.575
-7.65819
-4.21483
-1.17253
-6.25277
-8.20608
-6.25074
843.76
855.132
779.992
370.466
429.386
858.058
879.825
-11.2041
380.832
887.644
876.082
719.634
-3.62797
786.92
234.734
858.839
580.906
-11.098
718.835
770.646
-4.55801
765.849
7.69868
-2.29537
793.833
405.105
402.988
749.987
734.703
728.418
728.127
742.319
740.867
20.939
272.115
785.053
1094.54
1101.65
1101.52
768.849
-2.74298
-11.6007
1090.73
601.046
594.946
785.031
785.234
756.607
315.517
-5.30505
1004.3
729.585
728.544
1012.78
752.517
732.657
756.587
743.227
725.446
738.308
734.171
731.306
22.7754
-3.16473
1097.22
-8.14664
718.211
1099.26
591.776
1095.97
-4.28841
1091.6
-4.46681
1090.62
7.94089
5.05727
1103.15
-5.10251
1074.01
669.386
1089.53
-43.0485
245.933
-8.92319
399.23
1071.55
-43.4779
1068.19
636.864
1006.2
4.70476
-9.15968
-41.274
702.321
586.179
734.361
-8.86274
-39.0442
305.591
-44.933
-8.81243
716.14
-6.84532
-43.091
324.537
-11.0866
424.858
813.107
1102.51
701.927
-10.9565
731.235
730.087
-41.3026
)
;

boundaryField
{
    patch0
    {
        type            fixedFluxPressure;
        gradient        uniform 0;
        value           nonuniform List<scalar> 
4010
(
12.2195
12.2195
1.47387
1.47387
1.33944
1.33944
-10.4862
-10.4862
0.59253
0.59253
-18.4496
-18.4496
-19.7376
-19.7376
-19.7807
-19.7807
-20.31
-20.31
37.7765
37.7765
-21.9105
-21.9105
-24.5396
-24.5396
-5.40791
-5.40791
-26.3916
-26.3916
-39.3038
-39.3038
-37.4497
-37.4497
-4.70068
-4.70068
-29.4032
-29.4032
209.391
209.391
-31.8327
-31.8327
0.855429
0.855429
-12.1272
-12.1272
-0.986904
-0.986904
-35.5425
-35.5425
-12.4669
-12.4669
-15.4332
-15.4332
-14.4507
-14.4507
1.59165
1.59165
-1.73989
-1.73989
5.92225
5.92225
-1.60486
-1.60486
-10.7856
-10.7856
1.80748
1.80748
-0.195498
-0.195498
29.4852
29.4852
-1.1729
-1.1729
-10.9778
-10.9778
30.5033
30.5033
7.4331
7.4331
-0.0329632
-0.0329632
-12.8004
-12.8004
0.324868
0.324868
-14.7519
-14.7519
2.87995
2.87995
1.44279
1.44279
-2.04895
-2.04895
285.293
285.293
-5.52135
-5.52135
549.341
549.341
-2.82725
-2.82725
9.27724
9.27724
-5.53718
-5.53718
-10.6015
-10.6015
9.7218
9.7218
-0.0846613
-0.0846613
-0.427602
-0.427602
312.184
312.184
0.113963
0.113963
0.334863
0.334863
-19.2168
-19.2168
10.3145
10.3145
-33.1266
-33.1266
18.6024
18.6024
13.658
13.658
90.6495
90.6495
-4.15851
-4.15851
-20.8787
-20.8787
-8.8181
-8.8181
-2.18263
-2.18263
16.5967
16.5967
-5.47612
-5.47612
-31.2974
-31.2974
12.3213
12.3213
5.37048
5.37048
4.53499
4.53499
3.34154
3.34154
-6.71203
-6.71203
1.78287
1.78287
-3.39755
-3.39755
19.6503
19.6503
-33.9385
-33.9385
-16.0339
-16.0339
2.80378
2.80378
-4.6901
-4.6901
16.7065
16.7065
-4.20561
-4.20561
0.561487
0.561487
-37.0272
-37.0272
216.844
216.844
-5.53779
-5.53779
-19.2695
-19.2695
-17.0226
-17.0226
-0.943857
-0.943857
-0.401293
-0.401293
-5.04444
-5.04444
417.14
417.14
-8.20608
-8.20608
-35.3814
-35.3814
-18.326
-18.326
1.81276
1.81276
121.951
121.951
-4.38412
-4.38412
-17.6105
-17.6105
-17.5546
-17.5546
1.76521
1.76521
-6.31757
-6.31757
14.6987
14.6987
1.46351
1.46351
-19.228
-19.228
0.651869
0.651869
-10.2213
-10.2213
-2.20236
-2.20236
111.92
111.92
6.18769
6.18769
-3.30308
-3.30308
-5.0562
-5.0562
106.575
106.575
-39.8212
-39.8212
-1.32907
-1.32907
-5.00998
-5.00998
94.1813
94.1813
732.888
732.888
-2.75074
-2.75074
-5.22809
-5.22809
-25.608
-25.608
0.0967431
0.0967431
2.49775
2.49775
0.184174
0.184174
-1.95149
-1.95149
778.623
778.623
-12.0924
-12.0924
81.4857
81.4857
-0.683648
-0.683648
4.77276
4.77276
-5.13998
-5.13998
-0.54523
-0.54523
7.80966
7.80966
-2.36581
-2.36581
-37.6246
-37.6246
115.434
115.434
-2.47138
-2.47138
-27.5957
-27.5957
193.285
193.285
193.285
-2.0417
-2.0417
-2.0417
-1.51076
-1.51076
780.29
780.29
-2.15861
-2.15861
0.638644
0.638644
-19.4707
-19.4707
3.43665
3.43665
7.29892
7.29892
736.375
736.375
736.375
1.22186
1.22186
81.4591
81.4591
-17.8037
-17.8037
-0.796726
-0.796726
734.766
734.766
117.161
117.161
-15.3019
-15.3019
-5.55222
-5.55222
5.80937
5.80937
0.622162
0.622162
43.7185
43.7185
738.236
738.236
10.8052
10.8052
2.00367
2.00367
-0.96608
-0.96608
733.216
733.216
-5.83871
-5.83871
-2.13388
-2.13388
-1.86197
-1.86197
-18.6868
-18.6868
-7.10472
-7.10472
-17.9428
-17.9428
-2.56001
-2.56001
-1.89727
-1.89727
7.25974
7.25974
-4.15965
-4.15965
27.7698
27.7698
-17.665
-17.665
-9.72048
-9.72048
-43.4564
-43.4564
1.1628
1.1628
-5.97118
-5.97118
715.252
715.252
47.8126
47.8126
-4.2721
-4.2721
-10.6431
-10.6431
-9.16263
-9.16263
3.08642
3.08642
-6.24438
-6.24438
-19.0723
-19.0723
-17.5134
-17.5134
-18.7389
-18.7389
-10.3773
-10.3773
740.971
740.971
740.971
-12.0944
-12.0944
-3.55943
-3.55943
-7.63471
-7.63471
-6.81125
-6.81125
-2.28854
-2.28854
-0.161295
-0.161295
-2.93943
-2.93943
-19.2461
-19.2461
-1.68293
-1.68293
-10.097
-10.097
-18.5645
-18.5645
-6.26489
-6.26489
0.188421
0.188421
-1.04192
-1.04192
-1.04192
742.125
742.125
-2.27674
-2.27674
-40.9314
-40.9314
-10.6468
-10.6468
-11.0603
-11.0603
-3.42389
-3.42389
-19.7213
-19.7213
-3.86223
-3.86223
-19.8331
-19.8331
-0.0907853
-0.0907853
-8.01381
-8.01381
-1.31352
-1.31352
-3.16398
-3.16398
-40.7439
-40.7439
-21.1747
-21.1747
-12.5631
-12.5631
-20.8927
-20.8927
-16.9849
-16.9849
19.0461
19.0461
-7.59093
-7.59093
-0.856491
-0.856491
-18.6618
-18.6618
-9.88266
-9.88266
1.63906
1.63906
-13.8984
-13.8984
15.4953
15.4953
15.4953
-44.9122
-44.9122
-21.3424
-21.3424
38.5536
38.5536
744.843
744.843
744.843
-43.3717
-43.3717
-10.1547
-10.1547
-44.9419
-44.9419
-6.35239
-6.35239
-3.3466
-3.3466
-6.2614
-6.2614
-22.9263
-22.9263
-9.29706
-9.29706
0.50245
0.50245
-13.4039
-13.4039
-1.80552
-1.80552
747.353
747.353
-0.912216
-0.912216
-2.94331
-2.94331
-10.8334
-10.8334
-44.4582
-44.4582
-15.8478
-15.8478
-10.812
-10.812
-8.89833
-8.89833
-21.7304
-21.7304
-9.48033
-9.48033
20.8953
20.8953
-18.1188
-18.1188
-3.26203
-3.26203
-11.9197
-11.9197
4.59518
4.59518
-1.1852
-1.1852
-6.47451
-6.47451
-0.598546
-0.598546
315.439
315.439
-3.2191
-3.2191
7.95787
7.95787
-2.09416
-2.09416
-10.944
-10.944
-19.7659
-19.7659
-36.3068
-36.3068
-25.3204
-25.3204
-14.1831
-14.1831
48.6276
48.6276
-9.90155
-9.90155
218.829
218.829
756.552
756.552
756.552
-17.7354
-17.7354
-3.79974
-3.79974
504.249
504.249
3.12856
3.12856
-23.9752
-23.9752
753.168
753.168
-22.1311
-22.1311
-10.6286
-10.6286
45.8302
45.8302
8.9412
8.9412
-13.8494
-13.8494
-48.2724
-48.2724
-2.50182
-2.50182
21.4554
21.4554
-43.527
-43.527
-6.36925
-6.36925
-4.27051
-4.27051
-47.7189
-47.7189
764.976
764.976
764.976
49.7902
49.7902
-48.0686
-48.0686
-20.0788
-20.0788
-26.5315
-26.5315
-10.6537
-10.6537
-3.93466
-3.93466
-47.4584
-47.4584
-11.2642
-11.2642
-0.478406
-0.478406
-6.25579
-6.25579
17.0036
17.0036
-15.0458
-15.0458
-8.97928
-8.97928
-15.1865
-15.1865
-4.61344
-4.61344
-9.85333
-9.85333
-25.1848
-25.1848
44.2537
44.2537
-10.449
-10.449
4.86999
4.86999
-5.02991
-5.02991
34.6534
34.6534
14.1269
14.1269
-12.273
-12.273
-26.6573
-26.6573
-10.9085
-10.9085
-9.93303
-9.93303
-11.8233
-11.8233
-28.5265
-28.5265
-10.2308
-10.2308
-18.5974
-18.5974
-8.10361
-8.10361
-29.7186
-29.7186
0.499784
0.499784
-14.8014
-14.8014
-19.5602
-19.5602
13.3838
13.3838
-15.2565
-15.2565
39.561
39.561
-22.1863
-22.1863
8.12974
8.12974
-12.8158
-12.8158
-6.40111
-6.40111
-46.0576
-46.0576
-33.3941
-33.3941
-2.10625
-2.10625
-26.204
-26.204
-6.21816
-6.21816
-11.6867
-11.6867
-12.3096
-12.3096
-4.18484
-4.18484
58.9358
58.9358
-51.1603
-51.1603
-6.45331
-6.45331
-14.1758
-14.1758
721.664
721.664
-26.0926
-26.0926
-11.405
-11.405
441.174
441.174
-14.3683
-14.3683
-50.2028
-50.2028
-51.005
-51.005
-19.769
-19.769
-11.6338
-11.6338
-8.88653
-8.88653
-12.7113
-12.7113
-7.05336
-7.05336
-15.6027
-15.6027
-4.44052
-4.44052
-49.5499
-49.5499
-10.9848
-10.9848
-10.093
-10.093
-45.8725
-45.8725
-17.0681
-17.0681
-5.02533
-5.02533
-49.2036
-49.2036
-44.0918
-44.0918
-13.3661
-13.3661
-27.5539
-27.5539
-30.9518
-30.9518
-10.3539
-10.3539
-11.5615
-11.5615
-12.1086
-12.1086
-10.0734
-10.0734
-47.9617
-47.9617
2.08601
2.08601
-17.6416
-17.6416
-16.7493
-16.7493
-21.1873
-21.1873
23.0877
23.0877
-9.48638
-9.48638
-12.2206
-12.2206
-21.6476
-21.6476
-16.6271
-16.6271
-0.465737
-0.465737
-0.465737
-14.8968
-14.8968
-13.174
-13.174
-33.3093
-33.3093
-36.7932
-36.7932
775.774
775.774
-4.80878
-4.80878
-3.73177
-3.73177
2.00816
2.00816
731.313
731.313
731.313
-19.5912
-19.5912
-44.0868
-44.0868
-23.5884
-23.5884
-10.9466
-10.9466
-13.9578
-13.9578
-16.5283
-16.5283
-11.5602
-11.5602
-28.8479
-28.8479
-21.6031
-21.6031
-16.5494
-16.5494
-19.8199
-19.8199
-34.9754
-34.9754
-52.5006
-52.5006
-10.7423
-10.7423
-12.9454
-12.9454
-52.9556
-52.9556
-3.87461
-3.87461
-41.9545
-41.9545
-6.37127
-6.37127
-11.6061
-11.6061
-52.6472
-52.6472
-17.2929
-17.2929
14.1387
14.1387
-12.7685
-12.7685
-18.1542
-18.1542
-18.6016
-18.6016
-31.9189
-31.9189
-18.9734
-18.9734
-11.691
-11.691
-17.3902
-17.3902
-17.8278
-17.8278
-51.818
-51.818
-1.2583
-1.2583
-18.5081
-18.5081
-11.2038
-11.2038
-10.8379
-10.8379
-16.5274
-16.5274
-12.8432
-12.8432
51.2697
51.2697
-23.9726
-23.9726
-19.7038
-19.7038
-19.7038
-16.86
-16.86
-2.21181
-2.21181
-12.3705
-12.3705
-18.2868
-18.2868
-46.0031
-46.0031
-12.6047
-12.6047
-14.3211
-14.3211
-36.7279
-36.7279
-15.0843
-15.0843
-13.9232
-13.9232
-48.9622
-48.9622
-50.2662
-50.2662
-11.8059
-11.8059
-31.9699
-31.9699
-23.0524
-23.0524
-13.3342
-13.3342
-2.46858
-2.46858
-6.54472
-6.54472
-2.86468
-2.86468
-19.0512
-19.0512
-21.3643
-21.3643
-17.2496
-17.2496
-20.6364
-20.6364
-2.10867
-2.10867
-12.5886
-12.5886
-11.7225
-11.7225
4.92262
4.92262
-47.0083
-47.0083
-3.4418
-3.4418
-18.8173
-18.8173
19.8368
19.8368
-29.3126
-29.3126
-25.1943
-25.1943
-37.8819
-37.8819
-18.1579
-18.1579
-19.2625
-19.2625
-19.6127
-19.6127
-21.8742
-21.8742
-13.111
-13.111
-12.0486
-12.0486
-17.7191
-17.7191
-44.9433
-44.9433
-18.9892
-18.9892
-22.5087
-22.5087
-3.01367
-3.01367
-18.5782
-18.5782
-11.7898
-11.7898
-16.0559
-16.0559
-53.7007
-53.7007
-41.9567
-41.9567
-28.4469
-28.4469
-17.6111
-17.6111
-15.7814
-15.7814
14.3118
14.3118
-53.5788
-53.5788
-48.5841
-48.5841
-9.78125
-9.78125
-13.8127
-13.8127
-6.5404
-6.5404
-19.7372
-19.7372
-52.8507
-52.8507
-14.0504
-14.0504
-12.0884
-12.0884
-52.1075
-52.1075
-11.4789
-11.4789
-38.5803
-38.5803
-17.3873
-17.3873
-14.2532
-14.2532
-18.8735
-18.8735
-19.4923
-19.4923
-13.6864
-13.6864
-14.0753
-14.0753
-20.9263
-20.9263
-35.3747
-35.3747
-11.7167
-11.7167
-51.749
-51.749
-31.9771
-31.9771
-50.6561
-50.6561
-13.7941
-13.7941
-14.7747
-14.7747
1.04203
1.04203
9.51347
9.51347
-15.39
-15.39
-19.0571
-19.0571
-9.82681
-9.82681
-32.2936
-32.2936
-11.5202
-11.5202
22.486
22.486
-8.39072
-8.39072
-16.7487
-16.7487
-18.2179
-18.2179
-3.9667
-3.9667
-2.86451
-2.86451
-11.9495
-11.9495
-13.2325
-13.2325
18.3408
18.3408
21.2167
21.2167
-8.5668
-8.5668
-46.9037
-46.9037
-18.5389
-18.5389
9.17886
9.17886
18.3095
18.3095
-21.6846
-21.6846
-39.057
-39.057
-17.7158
-17.7158
-19.9123
-19.9123
-40.5654
-40.5654
-11.5346
-11.5346
-14.6978
-14.6978
-1.14702
-1.14702
8.83803
8.83803
13.1726
13.1726
17.469
17.469
20.2544
20.2544
-13.031
-13.031
-10.8134
-10.8134
3.20847
3.20847
-19.1016
-19.1016
-9.86524
-9.86524
-8.0307
-8.0307
-27.8575
-27.8575
-16.4476
-16.4476
5.86354
5.86354
-13.0409
-13.0409
-44.1145
-44.1145
-19.3728
-19.3728
-14.2544
-14.2544
-16.8304
-16.8304
-3.49417
-3.49417
-18.7844
-18.7844
53.3207
53.3207
-6.69638
-6.69638
-53.3378
-53.3378
-8.33318
-8.33318
-13.8102
-13.8102
-28.6382
-28.6382
-23.7835
-23.7835
-17.5574
-17.5574
145.487
145.487
15.6141
15.6141
-53.376
-53.376
-6.04536
-6.04536
-38.292
-38.292
10.3481
10.3481
-15.3586
-15.3586
-11.3508
-11.3508
408.853
408.853
23.9178
23.9178
22.7853
22.7853
-52.5406
-52.5406
-14.5149
-14.5149
-14.0683
-14.0683
-17.2049
-17.2049
-9.91698
-9.91698
445.839
445.839
-53.008
-53.008
-19.2322
-19.2322
24.109
24.109
-12.4329
-12.4329
-33.2387
-33.2387
-15.8613
-15.8613
-19.8773
-19.8773
-9.46706
-9.46706
-5.81233
-5.81233
-14.972
-14.972
-48.6457
-48.6457
37.08
37.08
-25.5356
-25.5356
-13.5195
-13.5195
-23.3686
-23.3686
-13.3457
-13.3457
-8.66417
-8.66417
378.432
378.432
19.3844
19.3844
-49.9745
-49.9745
-34.9604
-34.9604
-18.8329
-18.8329
-14.4705
-14.4705
-21.1023
-21.1023
2.42804
2.42804
9.01702
9.01702
-25.1724
-25.1724
-16.862
-16.862
-2.7801
-2.7801
-36.3024
-36.3024
-15.2649
-15.2649
-17.4941
-17.4941
-9.92368
-9.92368
-11.6946
-11.6946
443.584
443.584
-14.8189
-14.8189
18.5748
18.5748
-18.8667
-18.8667
-47.9817
-47.9817
-20.0191
-20.0191
-19.1773
-19.1773
-13.1009
-13.1009
-15.7491
-15.7491
-18.8403
-18.8403
-50.9828
-50.9828
-14.1731
-14.1731
-45.6753
-45.6753
-19.2383
-19.2383
-5.47478
-5.47478
-8.74844
-8.74844
-18.1926
-18.1926
110.385
110.385
-13.8107
-13.8107
58.8895
58.8895
-18.1932
-18.1932
-8.99083
-8.99083
-16.2008
-16.2008
-15.6778
-15.6778
0.461187
0.461187
-10.9161
-10.9161
22.2442
22.2442
-1.66321
-1.66321
-42.83
-42.83
-17.7178
-17.7178
24.5143
24.5143
-15.1822
-15.1822
-32.34
-32.34
-10.7884
-10.7884
-12.9884
-12.9884
-13.2661
-13.2661
-27.8805
-27.8805
-1.8985
-1.8985
-31.588
-31.588
-49.5213
-49.5213
-39.9796
-39.9796
-23.4628
-23.4628
-40.9211
-40.9211
44.1101
44.1101
15.6777
15.6777
-52.2786
-52.2786
-52.3264
-52.3264
-20.7639
-20.7639
-16.5171
-16.5171
-14.8261
-14.8261
-21.0495
-21.0495
-11.5802
-11.5802
572.113
572.113
-51.0514
-51.0514
25.91
25.91
9.15852
9.15852
-21.432
-21.432
-21.1039
-21.1039
-14.4423
-14.4423
-8.89218
-8.89218
-51.3798
-51.3798
7.34889
7.34889
-10.1865
-10.1865
-13.119
-13.119
-14.1087
-14.1087
-34.3344
-34.3344
-6.02857
-6.02857
-16.0408
-16.0408
-3.24616
-3.24616
224.199
224.199
-17.1724
-17.1724
-19.895
-19.895
-14.5116
-14.5116
-49.8089
-49.8089
-12.0122
-12.0122
-9.10773
-9.10773
32.8854
32.8854
-19.4046
-19.4046
780.568
780.568
-15.5471
-15.5471
-17.2346
-17.2346
-18.1928
-18.1928