/*--------------------------------*- C++ -*----------------------------------*\
  =========                 |
  \\      /  F ield         | OpenFOAM: The Open Source CFD Toolbox
   \\    /   O peration     | Website:  https://openfoam.org
    \\  /    A nd           | Version:  8
     \\/     M anipulation  |
\*---------------------------------------------------------------------------*/
FoamFile
{
    version     2.0;
    format      ascii;
    class       surfaceScalarField;
    location    "1";
    object      phi;
}
// * * * * * * * * * * * * * * * * * * * * * * * * * * * * * * * * * * * * * //

dimensions      [0 3 -1 0 0 0 0];

internalField   nonuniform List<scalar> 
2805
(
2.68584e-05
-0.000479082
0.000452224
0.000804924
-0.000778066
0.000718797
-0.00301581
0.00229701
0.00727853
-0.00655974
-2.04347e-05
0.000825359
0.00270474
0.00457379
0.0103486
-0.00764384
0.00325057
0.00709802
0.0113072
-0.00805663
-0.00344156
0.000425756
0.00206037
0.00924682
0.0107982
-0.0087378
0.000238233
0.00136867
-0.00160691
0.0035131
0.00728508
0.0133931
-0.0120236
-0.00136952
0.00143076
0.0119623
-0.00126093
0.00149916
0.0125656
-0.00905249
-0.000420013
-5.90695e-05
0.00171851
0.0108471
-0.000256117
-0.00012699
0.000383107
-0.00233765
-4.59039e-05
0.00238355
0.00111593
-0.00113534
1.94063e-05
0.00891915
-0.00720063
3.9823e-05
-0.00237747
0.00230271
-0.00150519
-0.000797514
0.00402886
-0.00172616
0.00234215
-0.00252522
0.000183067
-0.00037321
0.000678493
-0.000305283
-0.0048987
0.0026225
0.0022762
0.000572265
0.000543666
0.00252658
-0.00248676
-0.000816657
0.000619408
0.000197249
-8.91961e-05
-0.00117173
0.00107986
0.00126229
0.00151766
-0.002653
0.0015094
0.00101718
-0.00062517
0.00025196
0.000172098
-0.00507079
0.000483069
-0.000525541
0.00203494
0.000109353
-0.00036547
-0.00203073
-0.0012844
0.0013038
0.00723387
-0.00112849
-0.00610537
2.01323e-05
0.000542075
-0.000562207
0.000299775
-0.000349287
4.95121e-05
-0.00271794
0.0101905
-0.00747259
-0.000170529
-0.000132864
0.000303392
8.15724e-05
0.000254811
-0.000336383
0.000128149
0.000603458
-0.000731607
0.00147803
0.00152081
-0.00156671
0.000923447
-0.000795298
0.000617767
-0.00068001
6.22437e-05
-0.0023617
-0.000120238
0.00451592
0.00499339
-0.000477463
-0.00830397
0.00249304
0.00581093
0.000567849
-0.00185225
0.0149547
-0.013524
-0.000778164
0.00134601
-0.00313648
-0.00255649
0.00569296
2.94273e-05
0.00089402
0.00431516
0.00587537
-0.0126595
-0.000694394
0.0133539
0.000123089
0.00139457
0.000698626
-0.000511087
0.00111454
-3.42724e-05
-1.75877e-05
5.18601e-05
0.00152791
0.0134268
-0.00296438
-0.00203124
0.00465374
0.00251504
-0.00454628
-1.3507e-05
-0.000701186
0.000714693
0.0109165
-0.0066013
-0.00205296
0.004568
-0.00184862
-0.00562397
-0.00128925
0.0117905
-0.00746379
-0.00432674
0.00347504
0.000553821
-0.000581585
-0.00477246
0.00535404
0.00018387
-0.00031086
-0.000364433
-0.000873509
0.000996598
0.00246817
-0.000465684
-0.0115579
-8.89563e-05
0.000149978
-0.00018425
-0.00256124
-0.0100982
0.00473073
-0.00125569
0.00115984
0.00161031
-0.000286476
-0.00132384
-0.0005099
0.000659878
0.000691
-0.000661573
0.00583733
0.00507913
0.00488998
0.00690056
-0.00594866
-0.00235531
-0.000921156
0.000907649
-0.000714405
0.00136093
-0.00064653
-0.000326031
-0.000289884
-0.00565877
0.00488021
-0.00014948
-0.000232157
0.00184247
-0.00730213
-0.000530792
0.00783292
-0.000312193
-0.000793711
0.0011059
0.000619663
-0.00085182
0.00617533
-0.00368229
0.000873365
-0.000755542
0.00659288
0.000552782
0.000145844
-0.000645605
0.0055174
-0.00172732
-0.00379007
0.00404018
-0.0058888
-0.000304531
-6.32947e-06
0.0015826
-0.000214717
0.012177
9.67991e-05
-0.000278693
0.000181894
-0.00256113
-0.000168023
-0.00019641
-0.000384305
0.000382026
2.27863e-06
0.000637918
-0.000488781
-0.0144638
0.0137694
-0.0015759
0.00220825
-0.000632342
-0.0011398
0.000438612
0.00499595
-0.00704891
0.00142615
-0.000270677
0.000315686
-4.50092e-05
0.00651895
-0.00727449
0.00104874
-5.81838e-05
-0.00010846
0.000166643
0.00493581
0.00115199
0.00281694
-0.000974468
0.000647867
-0.000395907
0.0099407
-0.00102155
0.000616681
0.00834354
-0.0129359
0.000233068
-0.000233068
6.39113e-05
-6.39113e-05
-0.000468717
0.00205132
-0.000180102
-9.05752e-05
-0.00095624
-0.000938744
0.00159662
0.00457871
0.000224066
-0.000127266
-0.00645209
0.00167963
-0.000384305
-0.000990527
-0.000149271
-0.000439656
0.0014884
0.00410507
0.00221619
-7.94871e-06
0.000362429
1.95972e-05
-0.00104244
-0.000444319
0.00696327
6.31721e-05
-0.00284648
0.00278331
-0.00514792
0.0034206
0.000656509
0.00161167
-0.000378053
-6.25247e-06
0.00231935
-0.00358354
0.0012642
0.00218459
0.0041296
-0.0019134
0.000149694
0.000212735
0.00368225
-0.00624338
0.000451679
-0.000520077
0.00113948
-9.71094e-05
0.00420218
-0.00141713
-0.005885
0.0025249
0.00598184
-0.000901858
0.00133593
-0.000434076
-0.00287172
-0.00079919
0.00085105
-0.00134933
-0.00130367
-0.000334392
0.00194606
0.00173159
-0.00116292
-0.000568671
0.00960146
-0.00981618
-0.00307653
-0.00247183
0.00554836
0.0026074
0.00152219
6.78213e-05
-0.000200685
0.000594999
-0.000944286
-0.00141312
0.000422592
-0.00231603
0.00325945
-0.000943422
-0.00359224
-0.00218191
0.00560251
-0.000141002
-0.000815239
0.00700091
0.00784495
-0.00828927
0.00386779
0.00460204
-0.00199463
-0.000378053
-0.00367966
0.0046336
-0.000953936
0.000583801
-0.00148566
-1.75635e-05
0.000601364
-0.00107619
-0.000409467
0.000261161
0.00335588
-0.00117128
0.00664662
0.000354288
-0.000584447
0.000539943
0.00332785
-0.000605359
-0.00080776
-0.00108801
-0.00010846
-0.000372675
-5.37722e-06
0.00155758
0.0139116
-0.00631494
-0.00759664
0.00275697
0.00184506
-0.000420206
0.00446515
0.00443596
-0.00283934
0.00119493
0.00718657
-0.00327922
-0.00376968
0.00118698
0.00541721
0.00144247
0.00844118
0.00547041
0.00960111
0.00488413
-0.000250529
-0.000270478
0.00811543
-0.00618001
-0.00284947
0.00902948
0.00458392
-0.00182695
-0.00176056
0.000684369
-0.000513367
-0.000166644
0.0116464
-0.00428197
-0.00736442
-0.00118048
0.00543108
-0.000546959
-0.00284648
-0.0138674
0.0075525
0.000745875
0.00644069
0.003
-0.00155753
-0.000372675
0.00201169
0.00758977
0.000406337
-0.000990784
-0.00602808
-0.00783937
-0.00126379
0.000658429
0.00165482
-0.00278331
-0.000428137
0.00750451
0.00209661
0.011061
0.00149146
-0.00759714
-0.00142175
-0.000253867
-0.000118809
0.00292205
0.00166187
0.0003863
0.00399123
-0.00758347
0.0129358
-0.00449463
0.000818181
-0.00161569
0.00151003
-0.000750111
-0.000759915
0.00178835
0.00825038
0.00331054
0.00100537
-0.00102056
0.00354547
0.00595662
-0.000548196
-0.00193856
0.000149413
-0.00469569
-0.000473067
0.000107597
-0.00223297
-0.00365203
0.000718753
0.00028258
-0.00143918
-0.000321377
-0.00413274
0.000577278
-0.00120514
-0.000286058
0.0014912
0.00366404
0.00798234
-0.00610744
-0.00135635
0.00938168
0.00549556
-6.44797e-05
0.0018747
-0.00049611
9.31377e-05
-0.000253867
-0.0068432
0.0043389
-0.00141685
-0.00014829
-4.81197e-05
0.00835247
-0.00862294
-0.000315686
6.18195e-05
0.00155814
0.00669224
0.00191636
0.0029377
-0.00193233
-0.00285717
-0.00221363
0.00613904
-0.000643472
0.011569
-0.00401651
-0.000342713
-0.00319543
-0.000388112
0.00883698
0.00409882
-9.3257e-05
-0.00117053
-0.00551219
0.00707438
0.000317171
-0.0105172
0.00448915
0.000641841
0.00379412
0.00749005
0.00189163
-0.00152776
0.000418678
0.00110908
0.000483981
-0.000957048
-0.00537443
-0.00514279
-0.00195526
-0.000688158
-0.0012359
-0.000615035
0.000839101
0.00348871
0.000850181
-0.00137519
-0.000665909
0.0020411
-0.00429805
-0.00112292
0.00274187
0.00904819
0.00111076
0.00458693
-0.00270775
-0.00186877
0.000429582
0.00226323
-0.00632377
0.00312834
-0.00245362
0.000727462
-0.00400563
-0.00404541
0.00805104
0.00149616
-0.00181382
0.00450124
-0.0018774
0.0102299
-0.00148689
0.00270444
0.0106494
-0.00156996
0.000194771
0.0127387
0.00141679
-0.00518647
0.00590129
0.000237748
0.00947498
0.00323523
-0.00212447
0.00592937
-0.00244066
0.000330895
-0.0068551
-0.00792281
-0.0013989
-0.000978571
-0.000599108
0.000505851
-0.00262783
0.0114648
0.0149733
-0.00154651
0.00997127
0.00379816
0.000356783
-0.000971818
-0.00147373
-0.000556999
0.00116685
9.73438e-05
-0.00784577
0.00382926
-8.39021e-05
-0.00222463
-0.00537251
-0.000127017
0.000214018
-8.70012e-05
0.00236493
0.00668326
-0.00158691
-0.000368344
0.0010613
-0.000370299
0.00675975
-0.00085846
0.00902618
-0.0019518
-0.00335662
0.006572
0.00141034
-0.00202193
0.00365874
-0.00206481
-0.00135918
-0.000509583
0.00498278
0.000946591
0.00181838
-0.0062419
0.000867468
0.00364351
-0.000796639
0.00622162
-0.00420993
-0.00245253
0.00119684
-0.000851049
0.000362268
0.00639835
0.0100953
-0.000986862
-0.000951699
-0.00296487
0.0129361
0.0120085
-0.00587666
0.00298736
0.00530538
-0.00105731
-0.00455201
-0.00168989
-0.0032789
0.00927644
-0.00163435
0.00153427
-0.0010659
-0.000504053
0.00273683
0.00819623
0.00245318
0.00770782
-0.00588944
-0.0012774
-0.000338298
-0.00196543
0.00669381
-0.00857121
0.0106305
9.94768e-05
-0.000279578
0.00119383
-0.00670602
-0.000149919
-0.000449189
-0.000605083
0.000149694
0.00709842
0.00237656
-0.00432862
-0.00205934
0.00638796
0.0119944
-0.00183439
0.00625196
0.000507791
-0.0010022
-6.37083e-05
0.0099152
-0.00755027
0.00797496
0.00850365
-0.00352087
0.000991455
-0.000349613
-0.00176669
-0.00434075
-0.00511105
0.00315925
-0.000510585
-0.000401295
0.00091188
0.0110941
-0.00128179
-0.00171566
0.000356481
-0.00568498
-0.00125443
-0.000897413
-0.00112452
-0.00352447
0.000167849
0.00448146
-0.0087795
-0.00701464
0.00480101
-0.00108694
-0.000977865
-0.00239731
0.00137675
0.00850876
-0.0058121
-0.000136823
0.000525026
-0.000165527
-0.000359499
0.00526716
-0.00120047
-0.002657
-0.000165899
0.00036722
-0.000201321
0.00208553
-0.00184911
-0.00181723
-0.00121258
-0.000421772
0.00435144
-0.000251086
-0.000137026
0.0110983
0.00183788
0.0076543
-0.00140234
-0.00399264
0.00384591
0.00762751
0.00164893
0.000279118
-0.001591
0.00520162
-0.00211984
0.00881365
-0.00155087
0.00378143
-0.00170939
-0.00284262
0.00627536
0.000122989
0.00031218
0.000212847
0.0123606
-0.000352173
-9.54161e-05
-0.00675968
-0.000706735
-0.0012587
-0.000132073
-0.000990851
0.000184914
-0.000444801
0.000294882
0.0100807
0.0103861
0.00160832
0.0067481
0.00175555
0.00877777
-0.00631213
-0.000689147
-0.00114525
-0.000402907
-0.000599289
0.00340925
-0.006117
-0.00376873
-0.00116477
-0.000550896
-0.00546792
-0.00649288
0.0035285
0.00397044
0.00594476
-0.00127186
0.0123701
0.0103315
0.000299051
-0.00526841
0.0105356
0.00695526
0.012224
-0.0016846
-0.00181366
-0.000742826
-0.000457644
0.00477204
0.00144959
-0.00227897
0.00214215
-0.00414149
-0.00112295
-0.000902224
-0.000568434
0.00345027
-0.000800978
-0.000480812
-7.7256e-05
-0.00560772
0.0110888
0.0070938
0.00141496
-0.0011646
-0.00485926
-0.00146451
-0.000633128
0.00655448
-0.00146075
-0.000411973
-0.00143714
0.000244726
0.000481971
0.000509484
0.00232081
0.000838441
-0.000491559
-0.00105932
-0.000467886
-0.00112311
0.000813081
-0.00347008
0.00225468
-0.00813134
-0.00441801
0.00874273
0.00465466
0.0086271
0.00145359
0.0102354
-0.00167067
0.0045089
0.00350936
0.00997931
0.000831181
-0.000618335
0.0024438
0.0020783
-0.0078904
-0.00202953
0.00560125
0.00474664
0.00406469
-0.00734358
-0.000727068
-0.00112518
-0.00163681
0.0106945
-0.0039464
-0.000747345
0.000932259
0.00951428
-0.00554384
-0.00106718
-0.000103419
-0.000770091
0.000134015
-0.000578815
0.00138422
0.0108397
0.0070147
0.00030828
-0.00147305
-0.000305554
-0.00150811
-0.000136432
-0.00154817
-0.0068325
0.00197323
-0.000768691
-0.00052056
-0.00445135
0.00272941
-0.00649814
-0.000521956
-0.000380268
-0.00541529
-0.00159935
-0.00528681
0.00273032
0.00102494
0.0113452
-0.0076348
0.00551496
-0.000979599
0.00604217
0.000913093
0.00788882
0.000171292
-0.000739726
-8.66841e-05
-0.00107791
-0.000614003
-0.0020764
-0.000393978
-0.000337629
0.000451457
-0.00191596
-0.00169186
-0.00174269
8.38365e-05
-0.00016647
0.00745713
-0.00182909
0.000595303
-0.00468139
0.0104135
-0.00200604
-0.00125954
-0.00287831
-0.000697188
-0.001146
0.00722561
0.00151712
0.00511069
-0.00910333
0.00896657
0.00126884
-0.000414518
-0.000889148
-0.000204463
0.0033881
-0.00402123
-0.000221847
-5.68456e-05
0.00010799
-0.00177866
0.00997156
0.00111721
0.0101926
0.0086792
0.000749512
0.000144508
-0.00189387
-0.00188156
0.00140075
-0.00147977
0.00183655
0.00447332
-0.00889133
-0.00479447
-0.000212575
-0.00142423
-0.000447043
7.32885e-05
0.000209291
0.000355534
-0.000858189
-8.19874e-05
0.0103508
-0.00493106
-0.00384844
0.0118647
0.000683165
0.000249094
0.000695777
0.000365522
-0.00104312
0.00830382
0.00239068
-0.00541718
0.000130371
0.000104382
-0.00117156
0.0090486
0.00530046
0.00398845
-0.00945637
-0.000138639
0.000733942
-0.00125914
-0.000220624
-0.00172069
0.00234454
-0.00118461
0.00368123
-0.00782272
-0.00144018
3.78072e-05
0.0113074
0.00495778
-0.000578183
0.000712198
-0.000610393
0.000754901
-0.00243156
0.00516188
0.00506377
-0.00709331
-0.00341707
0.0023569
0.000184973
-0.00192767
-0.00589472
0.0129094
-0.00205232
-0.000842406
-0.00123399
0.0100094
0.00580825
-0.000317008
-0.000296996
0.00778053
0.00219878
0.000310165
-0.00128976
0.00409842
-0.000288653
-0.000635344
8.53843e-05
-0.000767749
0.00020037
0.000522931
-0.000903199
-0.00143437
0.00470721
0.00599692
0.00146021
0.000513088
-0.00177263
0.000190773
-0.00133677
-0.00165584
0.00213781
-0.000339006
0.00278281
-0.00159369
0.00206921
0.00270283
-0.000174257
0.00118506
-0.00110122
0.00751404
0.00671333
-0.00173155
0.00723052
0.00144867
-0.00105451
0.00130361
-0.0041429
-0.00123346
-0.000538855
0.000855035
-0.000918881
-0.000974989
-0.0022329
0.00680825
-0.00968656
0.00849937
-0.00188868
0.000372334
-0.00209302
0.00889773
0.000645049
-0.00109209
-0.000658469
0.000862366
-0.00230254
0.00591679
-0.0105982
-0.000355162
-0.000767785
0.00200554
-0.00208308
0.00429789
0.00478644
0.00310239
-0.00048241
-0.000375779
-0.000987434
-0.000197175
-0.00581299
0.00179177
-0.00441224
-0.000135213
0.0114426
0.0108141
0.00105054
-0.00155533
0.00896302
0.00879604
0.00155476
0.000194614
-0.000115032
-7.95824e-05
0.00739139
-0.00747338
-0.00215287
-0.0076662
-0.00179439
0.0104723
0.000590046
-0.0013578
0.000130542
-0.00423484
0.00319172
-0.00128443
0.00595138
-0.0104027
-0.000910263
0.00117388
-0.00276757
0.00807403
-0.0114911
-0.000669005
0.000380352
-0.00070585
-0.000583914
0.000278606
0.000542697
-0.000187163
-0.00160905
0.00358539
0.00112182
-0.000746727
0.000298083
0.000573707
-0.00120905
-0.000456171
-0.0014574
0.0050456
0.000144069
5.05454e-05
0.000949192
-0.00218265
0.00564884
0.0018652
0.000779665
0.000523943
-0.00145203
-0.000190987
4.2697e-05
-0.00315195
0.00735745
0.00265191
-0.00353958
-0.00131133
-0.000420226
0.00698522
-0.000362269
1.95559e-05
0.000765682
-1.07819e-05
0.00105985
-0.00163803
0.00884027
-0.0102746
0.00709751
0.000300246
-0.00346356
0.00383805
-0.000374487
-0.00112867
0.0106789
-0.00114383
0.00984657
-0.00052387
0.0015003
0.00994229
0.00011066
0.000166918
0.00681404
0.00168533
-0.00252415
9.20469e-05
-0.000161391
6.93438e-05
0.00173453
-9.73438e-05
-3.96821e-05
0.00107774
-0.00173621
-0.0015085
-0.000518386
-0.000846289
0.00155593
-0.00311126
0.00128479
-0.00294063
0.0102427
0.00589512
-0.00449668
-0.00139844
0.00585487
-0.00758459
0.00598524
0.000578519
0.000254416
-0.000154939
0.00885775
0.00575344
-0.00775949
0.00836879
0.00600436
-0.00393516
0.0100501
-0.0121332
-0.00121164
-0.00161648
0.000332053
0.00135268
-0.00209941
0.00157948
-0.00248974
-0.0015214
-0.000631472
0.000910287
-0.0014942
0.00508723
0.00381051
-0.000447508
-0.00220005
0.000284084
0.00296908
0.00207652
-0.000300209
0.00949664
-0.00770487
-0.000131314
-0.000829969
-0.00194163
0.0016313
-0.00087879
0.00746458
-0.0116075
-0.00576729
0.0147303
-0.00101829
0.00234405
0.00654012
-0.00859243
0.00455198
-0.00135404
-0.000255014
0.00777743
-0.00458571
-0.00167062
-0.00131624
0.00156246
-0.00103851
0.00336519
0.00483428
0.00204878
-0.00317745
-0.00144095
0.00202326
0.000197319
0.000573392
-0.000770711
-0.00187791
0.00133689
-0.00120634
0.000921205
0.00205322
-0.00319705
-0.00704396
0.0053521
0.00923819
-0.0127778
0.00470836
-0.00436631
0.00773914
0.00492178
0.00217573
-0.000156728
0.00727555
-0.00950845
0.0108748
-0.0105767
-0.00387067
-9.20469e-05
0.000457568
0.000838094
-0.00129426
-0.00147731
-3.11908e-05
0.0069886
0.00295369
-0.000848678
-0.000608722
-0.00105804
0.000449921
-0.000268028
-0.000735264
0.000845925
0.00824555
-0.00602697
0.00457493
-0.00148015
0.00164263
0.00820394
0.000600132
-0.000440959
0.0102988
0.000380107
0.00660711
-0.00114526
0.00223231
0.00475291
0.011057
-0.0135811
0.000685705
-0.00120409
0.0014207
-0.00186821
0.00251127
-0.0037229
-0.000678709
-0.00293815
-0.00153986
0.00852846
0.0116693
-0.0125156
0.000289829
-0.000289829
0.0119644
-0.000457568
0.000542953
-0.00153954
4.53343e-05
0.00223644
-0.00306641
8.57185e-05
0.000919032
0.000643424
-0.00179455
-0.000666182
0.00496474
0.00389301
0.000298374
0.00447537
0.00616986
0.00219893
-0.00149204
-0.000449584
-0.00236928
0.00604282
-0.000229551
0.00186085
0.000183768
0.00111147
-0.00124279
0.000665563
-0.000498644
0.00872391
-0.0118759
0.00875895
-0.0013186
0.00184697
0.0065951
-0.000841656
-0.000900944
2.21542e-05
0.00218564
0.00264864
5.68407e-05
-0.000960607
-0.00152324
0.000520313
-0.000463927
-0.00036825
0.00138086
-0.00153323
0.000152363
0.00180611
-0.00196284
-0.000989488
-0.00172077
0.00116024
-1.95557e-05
-6.94006e-05
0.000259907
-0.00562424
0.00373556
-0.00060856
0.00791843
-0.00121937
-0.00243099
0.00371578
0.00286996
-0.003928
0.00436137
0.0029119
0.0078125
0.00858405
0.00230969
-0.00275065
0.0126021
-0.014043
-9.31377e-05
-9.78497e-05
0.00688967
-0.000885304
0.0110637
-0.00769847
0.00335879
0.0126218
-0.0105985
0.00276197
0.00497717
-5.50199e-05
-0.000879259
0.00543123
-0.00144675
0.000301493
-0.00131688
-9.2616e-05
0.000864416
-0.000285897
0.00211944
-0.00279815
-0.000852942
-0.00906729
0.00448158
-0.000782505
-0.000697645
0.00169292
-0.00164759
-0.00449236
-0.000175288
-0.00105872
0.00204512
-0.000550527
0.000550527
0.000365771
0.00401477
0.00259234
-0.00123209
-0.000946973
0.000563322
0.0101728
-0.013111
-0.000784536
0.00387365
0.00272756
-0.00339374
0.000201382
-9.00152e-05
-0.000111367
0.0133579
-0.0127577
-0.000926439
-0.000979093
-0.00250956
0.000715013
0.00034685
0.00665498
0.0029725
-0.0039331
-0.000699599
0.00134302
-0.00084487
0.00269184
0.000243457
0.00452801
0.00400045
0.0012278
-0.000929423
-0.00224966
0.0062137
0.011927
-0.0142963
7.67778e-05
-0.000627305
0.000842263
-0.000597979
-0.000542953
0.000532171
-0.00107978
-2.30901e-05
0.00180377
-0.0013506
-0.000172635
0.000263286
0.00577954
-0.000721936
0.000905703
-0.000955505
0.000390182
-0.000758432
0.00956198
-0.000803027
-0.00151107
-0.00104911
0.00300077
0.00491766
0.000331052
-4.69687e-05
0.0136775
-0.0141414
0.000247066
-0.000855626
-0.0075325
0.0130029
0.000746889
-0.000690048
0.00143327
0.00292811
0.00557107
0.00304439
-0.00389733
0.00216807
-0.00234336
4.9244e-05
0.013325
-0.0150457
0.000798686
-0.000891302
-0.00170304
-0.000630071
0.00149608
-0.000272139
-0.00472539
0.0022944
-0.00237644
0.000728857
0.00748222
0.00110183
-0.000595698
0.00524045
-0.00166143
-0.000844344
0.000789324
0.00146206
-0.000898739
0.00281602
-0.00376299
0.00560847
0.00220403
-0.000349348
0.000876074
-0.00227452
-0.00466243
0.000296123
0.000528199
0.000474382
0.00402561
-0.000365495
0.00175658
-0.00140973
-0.000539242
-0.00118399
0.000782747
0.000560276
0.00255527
0.00700671
0.00708328
0.000233799
-0.00111709
-0.000805782
-0.000426306
6.08114e-05
0.00700123
-0.000511366
-0.00233688
0.00621053
0.0117256
0.0137038
-0.010345
-8.59962e-05
0.00096207
0.00203958
-0.00206267
-0.000978417
0.00113801
0.00551697
-0.00335182
0.00227204
0.00310522
0.0146386
-0.0125935
-0.000659985
0.00146613
-5.69404e-05
0.00322657
-0.00418207
0.0119574
-0.00747578
-0.00747582
0.00659052
0.00425889
0.00035765
-0.000971294
0.0144502
-0.0154293
-0.00116054
0.00296431
0.000570759
0.0033443
0.0028694
-0.00137632
4.64421e-05
0.000153928
6.13593e-05
0.00188085
0.00667919
0.000977672
-0.0006119
0.000287623
0.000857843
0.00452492
-3.26139e-05
-0.000670768
-0.00169473
0.000183655
0.00344265
-0.00745906
0.0067103
0.00605567
0.00275634
-0.00338641
0.0150224
-0.0141802
0.00265101
-0.00192215
0.000307647
0.00176756
0.000629844
-0.00972872
0.00523636
-0.0010877
3.85897e-05
0.00218993
-0.00253928
0.0037243
0.0150828
-0.00100666
-0.00415765
0.00554833
-7.4655e-06
0.000535665
-0.00349938
0.00183795
-0.000905402
-0.00131681
0.000777568
-0.000926874
-0.000853897
-0.000595539
-0.00490363
0.00639971
0.00317948
-0.00429657
0.000880987
0.00029767
-0.000248426
-0.000927872
0.00616833
-0.000128636
0.000127263
-0.00110938
0.000598017
-0.00203325
0.00100465
0.00302096
-0.000532171
0.000246274
0.00111808
0.00588315
-1.06087e-05
-4.63317e-05
-0.00100259
0.00487179
-0.00571344
-0.00331468
0.00265469
0.00101657
-0.000445815
0.00012025
-7.7553e-05
0.000878339
-0.00107124
0.000192904
0.000102551
0.000457725
0.0151487
-0.0155142
-0.00245335
0.0045891
0.00491811
-0.00262371
0.00114495
-0.000287104
0.00475103
0.00233225
0.00571344
-0.00693281
-0.00487178
0.0038823
0.00239352
-0.00306429
-0.000350364
0.0013069
0.00387405
-0.00078805
-0.000190367
-0.00132428
0.00102161
-0.000391769
-0.000289137
0.000349948
-0.00824969
0.00693281
0.00313718
-0.00282953
0.00053169
-0.000282603
-0.000249087
0.000779708
-0.000718349
-0.00358711
0.00166496
0.00899876
-0.00199205
-0.000249231
-0.00074946
0.0070654
-0.00038621
9.20469e-05
0.0010307
-0.000145754
0.0142035
-0.00994464
-0.000331815
0.00313017
-0.00413683
-0.00174916
-0.000887588
-0.000560091
0.00661576
0.00385857
0.0152818
-0.0121766
-0.00141094
-0.000895497
0.00266306
0.000587408
-0.00903423
-0.000280564
0.00586911
0.00545029
0.00126001
-0.00323102
0.00667367
0.000970243
0.000638215
-0.00116639
0.00268838
0.0156153
-0.0137345
-0.000443137
0.00019471
0.000699131
0.00532306
-0.000155513
-0.00088072
-2.46823e-05
0.000490104
-0.000362841
0.00903423
-0.0107373
0.00261794
-0.00362053
0.000734509
-0.0038823
0.00282358
-2.45328e-06
-3.45367e-05
3.69899e-05
0.00212546
0.00143517
0.0029373
-0.00337935
0.0057116
-0.00107611
-0.0124995
0.00502375
0.000176804
0.00332005
0.00222828
0.000352398
-0.000385012
-0.00511714
0.00266378
0.00288486
0.0107373
-0.0119213
-0.000446349
2.45328e-06
-7.32885e-05
7.08352e-05
-6.8898e-05
-5.97379e-05
-0.00246244
0.0154903
-0.0146093
9.83354e-05
-0.00726317
-0.000134921
0.000592645
0.000490572
-0.000259265
0.00561941
-0.00279905
0.00244868
-0.00210211
-0.000172409
0.00422619
0.00507335
0.00506408
-0.00159907
-0.00264626
0.00723536
0.000215028
-0.00548626
0.00286255
-0.000552072
-0.000772204
-0.000246274
-0.000365626
0.000273677
-0.000419431
0.00383323
-0.00216827
0.00329359
-0.00354282
0.0119213
-0.0128926
0.000268381
-0.000600196
0.0010037
-0.00180598
0.00255144
-0.00282358
-0.00118036
0.00704947
0.000135564
0.000118852
-0.000843243
0.000754394
-0.000166986
-0.000960442
7.28542e-05
0.00458006
-0.00580516
0.00711205
-0.000135985
0.000551644
8.6571e-05
0.00134468
0.00252937
0.000353526
0.000616717
0.00259747
-0.00376386
9.04819e-05
0.0001109
-2.39691e-05
0.0056119
9.96999e-05
-0.000404426
0.00110356
0.0105723
-0.00398175
-0.000785692
3.6232e-05
0.0039695
-0.000752508
0.000377494
-0.00294007
0.00826313
-8.91644e-05
0.0153939
-0.0115353
-1.95557e-05
-0.00484478
0.00309562
-0.00102306
-0.000917259
0.00165177
0.000305429
0.000868517
-0.000608889
-0.000985124
0.0128926
-0.0134881
0.00321724
0.000580184
-0.00102653
-0.00195992
-0.0145151
0.00457043
0.00443154
-0.00427128
0.00437098
0.0041094
-4.54713e-05
0.000638117
0.00357296
-4.26802e-07
0.00641461
0.00856127
-0.00294185
-0.000219592
0.00234505
-0.000159137
9.93994e-05
3.5573e-05
-0.00500981
0.00794711
-0.00153035
0.00162869
-0.00513201
0.00266957
-0.000503823
-3.96822e-05
-0.00282247
0.000154198
0.00428999
0.00018654
0.0054078
-0.000343719
0.00162456
0.0157588
-0.0130705
3.7727e-05
-0.000123723
4.50092e-05
9.0555e-05
-0.00268333
0.00674947
-0.00167612
0.000212291
-7.73046e-05
0.000160753
-0.000749593
0.000614797
0.000134797
0.000862761
-0.00037219
0.000186297
4.10993e-05
-0.00949133
0.00363793
-0.00263422
0.00202436
-0.000313924
5.46585e-05
-0.00172473
0.000125658
0.0161804
-0.0147453
0.00260266
-0.0034459
0.00222555
9.51093e-05
0.000464673
-0.000249645
-0.000277692
-0.000337268
0.00091066
0.00380275
0.000777303
0.00617979
-0.00180881
0.000365626
-0.000521139
0.00380762
0.0134881
-0.0137687
-0.00479877
0.00263049
-0.00521219
0.00918169
-0.00224294
0.00210696
-0.0011612
0.00780899
-0.003519
0.000121413
0.00373168
-5.76272e-05
0.000148109
0.00230977
-0.000676739
-0.00317079
0.00760233
0.00305094
0.00552115
-0.00265859
-0.00171863
0.00162946
-0.00170315
0.000580726
-0.00160379
6.12245e-05
-0.00870089
0.00762478
0.00610708
-0.00229946
0.00157116
0.00345904
0.000582839
5.52775e-05
-0.00489696
0.00900636
0.00398448
-0.000693933
-0.000445807
-0.015264
0.00372869
-0.00166261
-0.00123732
0.000252196
0.00482518
0.00298381
0.000102112
-0.000213259
-6.93438e-05
0.003009
0.0048928
-0.00116113
0.00258808
-8.99391e-05
-0.00552749
0.00270501
0.00301637
-0.0106935
-0.000861966
0.00232433
0.00124863
-0.00158883
9.24831e-05
-0.00285792
0.00356123
0.000807701
0.0155163
-0.012299
0.000198812
-0.00778716
0.00865567
-0.00903423
-0.000244954
0.000333194
-0.00335315
0.00633696
-0.00484086
0.00215753
0.00259334
0.000114246
0.00310164
-0.00145493
0.00161568
0.00270537
-0.0134012
0.00613799
0.00462791
-0.00203983
-0.00709168
0.0101426
-0.0137926
0.0137687
-2.45328e-06
5.17292e-05
2.92928e-06
0.000113087
-2.18617e-06
0.00127476
0.000151129
0.00288452
-0.00278941
-0.00775107
0.00997662
-0.00421236
0.00157814
0.00360023
-0.000141194
0.00143061
-0.0027339
-0.00563968
0.00298109
-0.00282358
0.000159955
0.00191468
-8.30031e-05
0.00019609
-0.00158187
-0.00111166
-0.000561374
0.00219281
-0.00215171
-0.000841154
0.000164415
0.00215171
-0.00215214
0.000673177
0.0016366
0.000521139
-0.000485566
0.000141882
0.000206565
-0.000330288
0.00215214
-0.00265596
-0.0118753
0.00789358
-9.0555e-05
0.000151779
0.0024391
0.000734402
-0.00189561
-0.00162456
-0.000181421
0.00265596
-0.00250176
0.00360219
-0.00100885
0.00250176
-0.00231522
0.0024458
9.78497e-05
4.40871e-05
-0.000141937
0.00231522
-0.00210293
0.000174538
6.26222e-05
5.76279e-05
0.00156235
0.00482161
0.00151535
0.00210293
-0.00191663
0.00549172
-0.00193049
-0.000434287
0.000156595
0.00192181
0.00378856
-0.00336463
0.006381
-0.000869389
-0.00663419
0.00933956
-0.00176374
0.00186586
-0.000774914
0.000998666
-0.000223751
-0.00533049
0.00247257
-0.00219281
0.00224808
0.00794218
-0.00493318
3.41566e-05
0.00233574
0.000765898
0.0150044
-0.0112757
-0.00293467
-0.000235475
-0.00118658
6.51059e-05
0.00191663
-0.00179522
-0.00698655
0.00549741
-0.0149887
-0.00317296
-0.00154557
0.00109977
0.00219455
-0.000588958
0.00224536
0.00019374
-0.000127148
0.00270542
-0.00947324
0.0109039
-0.000326694
0.000177752
0.000148942
0.00269826
-0.00142351
0.0157416
-0.0137172
0.00123652
-0.00849874
0.0104134
0.000669381
-0.00431837
0.00158447
-0.00224808
0.00258128
0.00555754
-0.00257645
0.00321856
-0.00164042
-0.00258128
0.00267376
0.000520452
0.00140135
-0.00425055
-0.0122215
0.00145699
-0.0150626
0.00436903
0.0103713
-0.000394716
0.00179522
-0.00188516
0.00130799
0.0048175
-0.00102894
0.000429142
-0.00267376
0.0018118
-0.00506137
0.0021267
7.01065e-05
0.00144782
-0.00245251
0.00362705
0.000996341
0.00323563
-0.0107749
0.00918608
-0.0025888
0.00084082
-2.99468e-05
0.000171829
0.0105313
-0.000205705
0.000175758
-0.00211924
-0.000162279
0.00128635
0.00421361
0.00142351
0.000138848
0.00099653
-0.0015579
-0.000151779
0.000216885
-0.00471302
0.00213656
0.000985629
0.00120892
-9.61542e-06
0.000485566
-0.000334438
-0.000116001
-0.000577932
-0.00449895
0.00132599
-0.00956518
-0.00885074
9.45246e-05
-0.0143075
0.00303173
-0.00993844
-0.0018118
0.000700134
-0.00170527
0.00157812
-0.000191207
0.000194136
-0.00366009
0.00107129
0.00478906
-0.00116201
0.00117937
-0.00258632
-0.000899077
-3.46115e-05
-0.0124281
0.0148739
0.00188516
-0.00171062
-0.00291448
0.00376012
-0.0113049
0.0140103
0.00350747
-0.00027184
0.000305736
-0.000211212
-0.0103483
0.0110176
0.000181421
-0.000147265
-0.00352913
0.00107662
-0.0023341
-0.0116288
0.011234
-0.000303916
-0.000138847
0.00137536
-0.00282914
0.000242824
0.0128141
-0.00978239
-0.000700134
0.000111177
0.00186705
-0.000580143
-0.00175785
-0.0007249
-0.000914193
4.48044e-05
0.00307679
-0.000940224
6.51463e-05
0.000122988
-0.000508
9.78497e-05
0.00164699
-0.00121784
-0.000664589
0.00195094
-0.00338742
0.000472937
0.00842641
-0.00711842
0.00191478
-0.000216885
0.00020727
-0.00421361
0.0056706
0.00301332
0.000746804
-0.000171057
-0.00216304
-0.0056706
0.00711842
-0.000111177
-5.11025e-05
-0.000312548
7.70733e-05
-2.45521e-05
-0.00842641
0.00926723
-0.00195101
0.00150925
-0.000962445
2.22214e-05
-0.000652899
-0.00110495
0.0033796
-0.013318
0.00274148
0.000544327
-0.0023108
0.0126749
-0.00214363
0.00171062
-0.00164051
-0.00071962
0.000185572
-0.00142351
-0.00137536
0.00255473
0.00158217
0.0105557
-0.000823956
-0.0016901
-0.0065452
0.0144388
-0.0113254
0.00154302
0.00238736
-0.000520311
-0.0134186
0.00916806
0.00089432
0.00102046
-0.0149078
0.00836258
-0.00794581
8.90819e-05
5.11025e-05
-9.13379e-05
4.02354e-05
0.00505462
-0.0146198
-0.00423252
0.000119973
0.000185456
0.000147265
-0.000171817
-0.00826342
0.00164112
0.000720142
-0.00143976
-0.000651441
-0.00103866
-8.32184e-05
-0.00222758
0.000334438
-0.000140302
0.0122215
-0.0112251
-0.000384809
-0.0141163
0.0098838
-0.0129596
0.010816
0.00181466
0.000926817
-0.00648975
-0.00813005
0.00024039
-0.00106435
-0.00926723
0.00933238
0.00116952
-0.0122215
0.00115668
-0.00220249
0.00189858
0.00848628
-0.00697703
-0.00067732
0.000699542
-0.0153405
-0.000369779
-0.000529298
-0.00172554
0.000794474
-0.00274549
-0.0118519
0.011127
0.000285386
-0.000109627
-0.00573972
0.000343142
-0.0143296
0.00858987
-0.00041105
-0.00112188
-3.80356e-05
0.00167916
-0.00255473
0.00309906
-0.00356065
-0.00745223
-0.00788826
0.00697703
-0.00543401
0.00129435
0.00110663
-0.00149143
0.00154574
-0.000846195
-0.000834218