/*--------------------------------*- C++ -*----------------------------------*\
  =========                 |
  \\      /  F ield         | OpenFOAM: The Open Source CFD Toolbox
   \\    /   O peration     | Website:  https://openfoam.org
    \\  /    A nd           | Version:  8
     \\/     M anipulation  |
\*---------------------------------------------------------------------------*/
FoamFile
{
    version     2.0;
    format      ascii;
    class       volVectorField;
    location    "1";
    object      U;
}
// * * * * * * * * * * * * * * * * * * * * * * * * * * * * * * * * * * * * * //

dimensions      [0 1 -1 0 0 0 0];

internalField   nonuniform List<vector> 
1924
(
(0.279622 0.118329 1.94785e-17)
(0.28883 0.0582445 1.064e-17)
(1.63137 1.30454 1.43047e-17)
(3.24243 2.63784 9.4903e-18)
(0.488623 0.0499038 1.89673e-17)
(3.39137 2.68211 9.88273e-18)
(4.44883 3.96664 8.94159e-18)
(4.52258 4.10406 8.18426e-18)
(4.79373 4.11935 3.96817e-18)
(1.12613 0.964694 1.65065e-17)
(4.76492 4.34808 2.06802e-18)
(4.87999 4.32416 -2.37347e-18)
(-0.649021 1.09148 5.94789e-18)
(4.74665 4.64225 -3.87149e-18)
(2.07029 5.41431 1.56295e-17)
(1.71128 5.76083 1.21737e-17)
(-0.50734 0.738896 7.48011e-18)
(4.67045 4.47071 2.94463e-18)
(0.178986 0.0726275 1.98743e-17)
(4.45842 4.6455 5.47395e-18)
(-0.0237411 -0.121302 5.56598e-18)
(-1.1797 -0.0815305 6.96611e-18)
(-0.582876 0.369269 8.10347e-18)
(4.44132 4.53878 1.55743e-17)
(-1.21257 -0.190532 8.34804e-18)
(-0.935186 0.490173 1.57766e-17)
(-0.67472 1.04008 1.72313e-17)
(0.940843 0.462063 1.78004e-17)
(0.433189 0.183478 2.11648e-17)
(2.19623 0.556846 2.83479e-18)
(-0.419073 0.255085 8.86593e-18)
(-1.15268 -0.185555 1.057e-17)
(0.257453 0.3611 1.70663e-17)
(-0.531718 0.376009 7.41919e-18)
(0.74634 0.493758 1.51355e-17)
(-0.728658 0.64123 5.65401e-18)
(-1.08877 0.165975 1.08087e-17)
(0.415139 0.0844307 2.15367e-17)
(1.80288 -0.488778 -4.85784e-20)
(-0.375331 0.26857 8.42785e-18)
(-0.975182 0.3706 1.18389e-17)
(-0.201392 0.0455992 4.21484e-18)
(-0.950185 0.260837 1.39547e-17)
(-0.718391 0.205729 7.77632e-18)
(3.43545 1.38555 7.00185e-18)
(0.45663 0.445162 1.59309e-17)
(0.142631 -0.201167 1.4311e-17)
(4.06939 2.54076 1.08296e-17)
(0.1559 0.0503073 7.26462e-19)
(0.0542296 -0.0520513 5.69546e-19)
(-0.336772 0.125512 -5.78656e-18)
(-0.511241 0.524287 5.85627e-18)
(-1.0835 -0.152472 5.27872e-18)
(0.504756 -0.263017 5.08926e-19)
(0.217548 0.609576 1.10635e-17)
(1.28486 1.47914 1.49454e-17)
(0.162569 -0.0308312 1.74966e-17)
(3.49076 1.51358 1.17398e-17)
(2.58316 0.767541 9.11699e-18)
(0.351583 3.58813 1.87104e-17)
(-0.987258 0.244834 5.9611e-18)
(2.07988 6.35088 6.25221e-18)
(-0.853783 0.0537903 5.60933e-18)
(2.97432 0.724297 -3.08859e-18)
(0.477778 -0.248474 3.72872e-18)
(3.90751 2.84235 1.16682e-17)
(1.51826 5.71427 1.7364e-17)
(-0.348605 0.856141 6.06172e-18)
(0.349431 0.379902 1.79188e-17)
(-0.607686 0.0259803 1.5503e-18)
(-0.065878 -0.0172363 1.15887e-17)
(1.77062 6.6057 4.49684e-18)
(1.88003 -0.609611 3.64825e-19)
(2.29609 0.459569 3.75946e-18)
(2.06258 -0.442989 2.12319e-18)
(-0.57586 0.0770333 1.49447e-17)
(3.9846 2.80589 9.04359e-18)
(2.61287 -0.130615 2.48359e-18)
(4.31884 3.15275 7.59805e-18)
(-0.779602 0.111667 4.87154e-18)
(4.06861 0.108209 1.72364e-17)
(-0.409688 1.72584 1.66923e-17)
(3.13986 3.5102 -8.18486e-19)
(0.0539355 -0.0275854 7.9073e-18)
(0.210633 0.344736 1.54074e-17)
(-0.301472 0.525439 4.60239e-18)
(2.25985 1.0734 1.01107e-17)
(2.6702 5.57405 1.24628e-17)
(0.0908674 -0.0249166 1.79409e-18)
(0.200459 0.194336 1.0232e-17)
(1.57429 5.2461 2.09407e-17)
(-0.526989 1.48079 2.17324e-17)
(0.211393 0.623154 1.20042e-17)
(0.0276135 1.00383 1.43742e-17)
(-0.00829901 0.326075 1.05756e-17)
(0.445745 -0.264956 5.22316e-18)
(4.10799 3.03849 9.25821e-18)
(4.38666 1.23157 1.93041e-17)
(0.246067 3.37632 1.70304e-17)
(-0.580831 -0.0552152 1.46479e-17)
(0.87098 0.481141 1.77896e-17)
(-0.0705323 0.260632 9.24425e-18)
(0.362188 3.73015 1.499e-17)
(-0.244462 2.18086 1.89176e-17)
(-0.0245589 1.0625 1.5489e-17)
(3.84756 0.0227448 1.62796e-18)
(0.701814 0.589254 1.95824e-17)
(-0.289607 0.707026 1.6612e-17)
(0.100967 2.83 2.26487e-17)
(0.308762 0.952044 1.17668e-17)
(4.49278 3.10239 7.3021e-18)
(0.345717 0.591481 1.64764e-17)
(0.464594 0.0766634 2.05268e-17)
(3.27295 2.34337 2.19676e-18)
(3.93371 2.46418 7.4146e-18)
(0.253195 0.075933 1.09313e-17)
(1.24098 0.820493 1.50661e-17)
(0.946197 5.44443 1.51881e-17)
(0.0430151 0.167766 6.1377e-18)
(3.93769 2.44394 6.43938e-18)
(-0.0338118 0.15936 1.88234e-17)
(0.139475 0.00306184 3.75173e-19)
(0.252788 -0.383117 8.66736e-19)
(0.313492 0.0420379 6.86892e-18)
(1.68214 6.65983 7.96086e-18)
(0.193349 1.20409 1.29605e-17)
(-0.68117 0.144823 1.40056e-17)
(2.89834 -0.621438 6.69935e-18)
(0.331883 0.822124 1.26321e-17)
(0.0799605 -0.0825098 -1.91577e-19)
(4.34537 2.83946 9.04595e-19)
(0.835818 0.538304 1.88174e-17)
(-0.315151 0.316992 1.38812e-17)
(3.63953 2.77934 3.66888e-18)
(-0.282374 0.576283 7.66762e-18)
(0.406456 1.27484 1.46929e-17)
(0.492334 0.261672 2.03137e-17)
(0.356557 0.340593 1.96862e-17)
(4.22332 4.65394 1.77804e-17)
(0.585356 0.241755 1.85181e-17)
(3.16228 2.35303 1.08138e-17)
(1.95316 6.79969 5.77678e-18)
(-0.0612804 -0.363459 1.49028e-17)
(0.148187 -0.28826 9.98999e-18)
(1.38141 0.944529 1.55074e-17)
(0.0713233 -0.105731 -1.16869e-18)
(-0.417564 0.745406 1.77946e-17)
(-0.508772 0.00174547 1.24807e-17)
(0.215337 2.82489 2.35416e-17)
(0.038768 -0.083966 4.68932e-18)
(1.89825 2.56174 -5.32502e-18)
(0.119543 7.57236e-05 6.22848e-19)
(-0.789254 0.0858594 1.14581e-17)
(0.920032 0.701986 1.99026e-17)
(2.2724 2.0024 1.12349e-17)
(0.148862 1.21123 1.07135e-17)
(0.133327 0.0143659 3.28118e-20)
(0.624727 0.298854 1.96676e-17)
(4.50085 3.06747 -1.83185e-18)
(2.33709 2.77362 -1.35199e-17)
(3.07224 1.9635 5.8636e-19)
(-0.415982 0.212972 1.50443e-17)
(1.14196 0.855772 1.87858e-17)
(0.149242 -0.00371295 8.66862e-19)
(1.21391 0.960123 -1.14613e-17)
(0.544463 1.51092 1.36878e-17)
(0.930573 1.45298 1.313e-17)
(0.138156 0.0213234 3.51986e-19)
(3.79967 2.08476 4.31952e-18)
(0.851441 1.19074 1.31663e-17)
(0.606355 0.373503 1.91972e-17)
(2.78246 2.72074 9.59829e-18)
(3.7166 -0.533937 1.06629e-19)
(-0.176123 2.25324 1.98331e-17)
(2.61068 3.09395 9.56706e-18)
(-0.868913 0.270198 1.2066e-17)
(2.94751 1.39414 2.02124e-19)
(0.0264502 -0.67199 8.07335e-18)
(-0.863881 0.563877 5.41156e-18)
(1.28482 1.08048 2.07095e-17)
(0.102186 0.97462 2.00866e-17)
(0.45824 4.67345 2.43189e-17)
(3.05808 1.13139 3.22807e-18)
(1.14503 1.6591 1.3262e-17)
(0.152366 0.0614441 4.06866e-19)
(0.469335 -0.278939 7.49089e-18)
(-0.907238 0.284958 1.03564e-17)
(0.283326 1.70307 1.76229e-17)
(4.20044 2.26055 -9.452e-19)
(3.16084 1.87195 3.26812e-18)
(-0.670313 0.647026 1.49739e-17)
(3.98231 3.74707 7.37048e-18)
(4.81628 2.85569 -3.15356e-18)
(2.23317 2.17813 1.21393e-17)
(1.19659 1.53742 1.94921e-17)
(0.114271 -0.00449437 5.10887e-19)
(0.300866 2.41306 1.50346e-17)
(-0.82215 0.285146 1.23156e-17)
(-0.509823 0.436132 1.72115e-17)
(-0.923936 0.302902 1.16112e-17)
(0.0661517 -0.0992171 1.50214e-17)
(0.613097 -0.603037 6.03623e-18)
(0.786922 1.48056 1.43066e-17)
(4.18426 4.30174 7.22575e-18)
(0.651379 0.174998 2.02003e-17)
(-0.109406 1.01227 1.70627e-17)
(2.27977 2.68386 1.19653e-17)
(-0.82097 0.48397 9.71129e-18)
(-0.624472 0.15368 1.2198e-17)
(-0.155329 -0.347849 1.12402e-17)
(0.149512 -0.00936281 6.05831e-19)
(0.749628 0.82842 1.78372e-17)
(3.60017 4.9038 2.06106e-17)
(1.22992 1.83354 1.59209e-17)
(0.0303415 1.81965 1.56949e-17)
(3.54078 0.0971986 1.80926e-18)
(0.000457195 1.96883 2.31602e-17)
(-0.722181 0.51543 1.39807e-17)
(3.55705 3.99853 9.15605e-18)
(2.66638 -1.42553 9.42911e-18)
(-0.163429 0.949206 1.39122e-17)
(3.98141 2.69691 2.36386e-18)
(1.23577 1.60874 1.73002e-17)
(3.30212 5.11495 2.41797e-17)
(4.51658 4.53672 5.57844e-18)
(0.111983 2.60201 1.4042e-17)
(4.93709 3.19993 -1.68539e-18)
(4.27293 -0.834274 8.86624e-18)
(1.08758 1.59809 1.94673e-17)
(-0.997252 0.296331 1.06485e-17)
(0.332243 0.184001 1.01827e-17)
(0.781946 4.33739 2.04871e-17)
(-0.499849 0.517816 1.9096e-17)
(-0.471116 -0.153422 1.57684e-17)
(0.21312 2.97694 1.38233e-17)
(0.153815 1.05415 -1.6008e-17)
(3.2727 4.45198 2.15219e-17)
(4.02991 4.85004 7.4513e-18)
(1.06109 1.11631 2.26538e-17)
(0.11428 -0.00926754 2.13711e-19)
(-0.220279 4.12381 2.28879e-17)
(-0.501392 0.804794 9.99711e-18)
(3.49328 4.06974 2.13977e-17)
(-0.858686 0.51433 9.76786e-18)
(1.75751 0.748601 -1.28647e-17)
(-0.321581 0.435838 9.3113e-18)
(4.44345 4.85953 3.92596e-18)
(3.42092 3.61392 8.40791e-18)
(3.0108 0.658491 1.19893e-18)
(4.06984 -1.11058 7.20377e-18)
(0.787006 -0.0340793 -2.76787e-18)
(0.144542 -0.00794277 3.26415e-19)
(0.994963 1.9138 2.15812e-17)
(1.00275 0.998963 1.81512e-17)
(4.42854 1.98081 -4.76016e-18)
(2.70197 4.86464 2.50856e-17)
(-0.927173 0.365411 1.60001e-17)
(-0.960636 0.558563 5.96678e-18)
(-0.171427 0.866008 1.73295e-17)
(4.28121 4.94764 4.95472e-18)
(0.638659 1.42955 1.47046e-17)
(1.09687 1.25686 2.29622e-17)
(-0.216631 1.94643 2.36357e-17)
(3.53262 0.703023 1.22616e-19)
(-1.09242 -0.24914 9.7859e-18)
(1.67985 -1.69486 5.39772e-18)
(-0.159366 0.0562846 3.93776e-18)
(3.18613 -1.48055 8.66022e-18)
(-0.121699 0.676428 1.4285e-17)
(-0.098541 -0.222418 2.42563e-17)
(-1.06398 0.175993 1.06943e-17)
(2.63857 1.89857 -2.9531e-18)
(0.711086 0.365959 1.8229e-17)
(-0.952155 0.891434 5.24913e-18)
(0.746248 4.47459 2.09005e-17)
(3.47712 -0.819091 1.72287e-17)
(4.58364 4.90199 -1.92224e-18)
(0.133748 3.07367 1.28541e-17)
(0.95156 0.803094 2.17796e-17)
(-0.834432 0.528556 9.79815e-18)
(-0.123536 -0.171045 1.54407e-17)
(0.104988 -0.00733921 4.12679e-19)
(1.10911 4.36578 2.17982e-17)
(0.787595 1.81746 2.18364e-17)
(-0.0105845 0.089299 1.98777e-17)
(2.79265 1.17321 5.39578e-18)
(5.00377 2.89202 3.92927e-18)
(0.142607 -0.0315095 4.15105e-19)
(4.08293 5.25285 3.99062e-18)
(-0.736157 0.844504 7.38256e-18)
(1.1393 1.08469 2.3552e-17)
(1.27832 -1.65568 7.61436e-19)
(0.308434 3.2402 1.43771e-17)
(2.49702 3.80628 2.39112e-17)
(0.224257 -0.10215 6.0311e-18)
(1.15231 0.543944 -1.1183e-17)
(2.50696 5.03035 2.4673e-17)
(-0.520162 0.582512 7.23881e-18)
(2.98326 -1.88209 1.12821e-17)
(2.26211 4.16777 2.43285e-17)
(0.105 -0.0440238 -2.58561e-19)
(0.956679 0.860515 2.24329e-17)
(2.94108 2.88272 2.24247e-17)
(0.13255 1.74094 2.80751e-17)
(4.37464 5.16101 -1.05987e-18)
(-0.76932 1.0861 1.06229e-17)
(-0.539225 0.745743 4.72139e-18)
(3.15536 2.42251 2.12428e-17)
(-1.08698 0.557461 8.99418e-18)
(4.29308 2.92715 8.72442e-18)
(-0.5009 0.618326 5.42512e-18)
(-0.223379 -0.212708 3.42175e-18)
(0.495531 2.04744 2.05831e-17)
(-1.01755 -0.278235 4.49384e-18)
(4.74127 2.2874 -2.73089e-18)
(-0.631024 0.771045 4.10857e-18)
(0.576569 1.55544 1.52149e-17)
(4.14635 5.40265 6.27003e-19)
(1.09905 1.20289 2.34491e-17)
(0.907377 1.93459 1.56216e-17)
(1.36087 -1.70935 8.13851e-18)
(-1.10966 0.212723 1.22322e-17)
(1.07816 0.956978 2.18251e-17)
(2.54217 1.59029 5.11338e-18)
(-0.535142 1.34663 1.56013e-17)
(3.80079 -1.55636 1.53101e-17)
(-0.47829 1.4641 8.98567e-18)
(-0.993288 0.66927 9.89197e-18)
(3.60766 4.25038 7.92321e-18)
(4.92999 3.25629 9.00756e-18)
(-0.766548 0.441087 9.42911e-18)
(1.31347 5.64002 1.32909e-17)
(-0.849427 -0.201154 3.97155e-18)
(4.30971 5.00854 1.53249e-18)
(2.1631 -2.30746 1.00377e-17)
(0.273623 3.32587 1.29416e-17)
(0.604054 4.15898 1.99068e-17)
(1.09097 1.32615 2.29175e-17)
(1.01928 2.53444 2.41993e-17)
(1.20423 1.0063 2.22739e-17)
(3.828 -1.86873 9.89856e-18)
(3.31222 2.2623 2.41323e-18)
(-1.13341 -0.373623 7.07198e-18)
(-0.474744 0.324648 1.20491e-17)
(1.82201 4.58049 2.6595e-17)
(1.07697 6.3228 8.87764e-18)
(0.4609 0.0962604 1.63726e-17)
(1.46578 6.82926 8.3829e-18)
(-0.309257 -0.34246 3.7521e-18)
(-0.77072 0.841142 1.33379e-17)
(-0.996783 -0.146634 1.30476e-17)
(1.10744 0.0814053 -1.71452e-17)
(0.416682 0.372804 -1.62364e-17)
(1.85409 2.46333 2.60416e-17)
(-0.310514 0.797042 2.63192e-18)
(3.59155 -2.45935 9.33005e-18)
(0.0971123 0.0914836 -5.5012e-19)
(3.83207 5.70572 4.70372e-19)
(-1.14515 0.28274 1.06492e-17)
(0.401151 -0.195675 5.81445e-18)
(0.483992 3.50498 1.57051e-17)
(1.45586 3.50334 2.67289e-17)
(2.14372 2.00188 2.49161e-17)
(0.799737 4.49635 2.21545e-17)
(-1.03826 -0.301582 1.09799e-17)
(1.60958 1.4442 2.01601e-17)
(-1.10372 -0.345417 7.22068e-18)
(-1.03539 0.22618 1.29632e-17)
(0.760022 2.68825 2.9503e-17)
(0.957492 1.40196 2.30605e-17)
(2.45916 0.894247 2.12141e-17)
(0.756344 2.24322 1.67079e-17)
(-1.05977 0.271158 1.04741e-17)
(-0.896766 3.02268 2.49851e-17)
(-0.680291 0.796414 2.10527e-17)
(0.261566 -0.496869 -3.58585e-18)
(1.19213 3.79042 2.68125e-17)
(1.53836 4.8125 2.44598e-17)
(-1.05915 -0.464928 8.04397e-18)
(1.24063 6.68947 8.42382e-18)
(1.01625 6.35348 9.93146e-18)
(3.31976 -2.58601 7.99038e-18)
(-0.699485 1.42223 6.70973e-18)
(0.865028 2.37233 1.61975e-17)
(-0.987437 0.316856 9.7655e-18)
(2.67035 0.47012 1.98058e-17)
(1.86239 -2.44496 1.06084e-17)
(1.02677 4.99617 1.93159e-17)
(-0.845364 0.305801 1.80397e-17)
(1.63657 1.68522 2.0352e-17)
(1.19739 1.21193 -1.96033e-17)
(-0.806888 -0.199724 4.75199e-18)
(-0.390419 2.17189 8.49318e-18)
(1.19776 5.83915 1.75521e-17)
(2.08622 2.80557 1.62661e-17)
(0.0303484 0.487241 8.46929e-18)
(-0.895328 -0.10972 1.5766e-17)
(-1.06388 -0.498778 7.1898e-18)
(4.87017 2.93895 1.63979e-17)
(0.731815 5.67904 1.30015e-17)
(0.0104319 -0.130083 -2.05596e-18)
(2.64755 -3.19702 1.35333e-17)
(-0.252055 0.231196 1.03411e-17)
(-0.252536 0.687681 1.54853e-17)
(0.108773 0.00784552 3.96886e-19)
(0.659696 4.16179 2.00319e-17)
(2.93644 -0.707291 1.75904e-17)
(1.18041 6.27856 1.53515e-17)
(-1.21029 0.183336 8.77431e-18)
(-0.960282 -0.318825 1.36994e-17)
(0.416902 3.58596 1.69762e-17)
(-0.519735 -0.0591802 5.47081e-18)
(3.75322 5.61897 1.62946e-18)
(3.239 3.6611 1.22615e-17)
(1.50543 3.68148 2.32997e-17)
(0.0799081 0.59604 2.83071e-17)
(3.19977 -1.92794 1.68829e-17)
(0.749559 2.05455 2.98093e-17)
(0.211581 0.306772 6.50905e-18)
(4.23136 3.92616 7.88402e-18)
(1.08314 1.66494 2.89099e-17)
(-1.07949 0.167461 9.19152e-18)
(3.12393 -1.14142 1.56715e-17)
(-0.33188 0.796097 3.75277e-18)
(-0.994691 -0.557138 9.7171e-18)
(1.4054 0.413462 2.67153e-17)
(4.836 1.83713 2.22364e-18)
(1.00755 -2.49223 -2.22321e-18)
(-0.988143 -0.440055 7.01539e-18)
(-0.400772 1.00434 2.46666e-17)
(0.752472 4.39851 2.11521e-17)
(3.18596 -2.48001 1.73964e-17)
(-0.173889 2.03276 2.42198e-17)
(0.156197 0.00763743 6.37107e-18)
(1.89576 3.04969 1.72083e-17)
(-0.602244 0.491215 2.24318e-17)
(1.74272 0.0574022 2.49953e-17)
(0.111115 -0.143152 2.75759e-18)
(3.14818 4.16037 1.02844e-17)
(-0.980001 -0.602607 8.56257e-18)
(-1.03959 0.380905 8.21854e-18)
(-0.783991 -0.133773 1.78849e-17)
(0.750958 2.71118 1.1556e-17)
(0.0449224 -0.00120872 -2.15918e-17)
(1.06097 6.65776 9.46063e-18)
(2.02311 1.48323 -1.1762e-17)
(0.708828 3.87933 1.82987e-17)
(2.24993 -3.31944 1.36201e-17)
(-0.496956 1.92178 1.04022e-17)
(0.984945 4.92965 2.0979e-17)
(0.725454 4.35994 2.58458e-17)
(-0.876423 -0.351281 6.29729e-18)
(0.512945 2.76507 1.39447e-17)
(4.74311 3.24383 1.88392e-17)
(-0.841761 -0.276408 1.65403e-17)
(-0.224186 2.61678 9.32369e-18)
(2.00374 -1.16534 2.1461e-17)
(0.388761 3.10691 2.89208e-17)
(0.182426 -0.198501 4.31389e-18)
(0.452112 5.94963 1.15279e-17)
(3.13844 -3.24722 9.92582e-18)
(-0.943058 -0.622363 6.21869e-18)
(-0.767947 0.3321 4.36073e-18)
(0.0676684 -0.154913 4.74807e-18)
(-0.40183 0.220932 9.89874e-18)
(0.957246 5.29272 2.02881e-17)
(0.967486 6.08278 1.65688e-17)
(1.28697 3.73793 2.57771e-17)
(3.60748 5.07646 6.43843e-18)
(4.14804 3.10325 7.66036e-18)
(-0.914652 -0.588747 1.1423e-17)
(-0.518579 -0.231361 6.11618e-18)
(1.23073 -2.93866 1.62166e-17)
(2.25115 -1.55014 1.90071e-17)
(-0.893719 0.102518 5.75238e-18)
(3.11164 -3.39616 1.04465e-17)
(1.21567 -2.06432 -4.17519e-18)
(3.39534 5.8515 2.72089e-18)
(0.801152 6.42507 1.1124e-17)
(0.108544 5.23157 1.46683e-17)
(0.613351 4.03134 1.73779e-17)
(2.6591 4.50959 1.15927e-17)
(0.501742 3.60841 2.24518e-17)
(0.853482 6.34652 1.42582e-17)
(-0.930957 -0.626368 6.29301e-18)
(-0.937772 -0.672806 1.01765e-17)
(-0.603673 -0.164495 1.99819e-17)
(-1.68975 2.38144 2.32351e-17)
(-0.334154 1.2954 2.2485e-17)
(4.95571 2.2341 7.63307e-18)
(-0.643247 0.43932 3.97449e-18)
(-0.424765 0.611409 2.2912e-17)
(-0.272457 -0.182128 6.9271e-18)
(4.57705 4.22581 7.58107e-18)
(0.259742 0.0197431 3.10876e-17)
(2.48651 -2.60947 1.55372e-17)
(0.48678 5.91416 1.38373e-17)
(0.800015 4.33543 2.22712e-17)
(-0.639902 -0.323572 1.76873e-17)
(2.43605 1.13641 4.05586e-18)
(0.720937 -0.202616 2.92398e-17)
(0.112862 3.41767 2.65914e-17)
(-1.10935 0.268564 8.67114e-18)
(-0.903838 -0.74314 8.11031e-18)
(-0.22147 0.845369 6.15432e-18)
(0.259783 0.174079 2.22298e-17)
(0.0241958 1.35227 3.15575e-17)
(-0.728483 -0.552953 1.38314e-17)
(-0.74216 -0.516435 5.63639e-18)
(0.958818 -1.5166 2.6851e-17)
(2.69605 -3.96027 9.09751e-18)
(2.60896 -2.81433 1.43218e-17)
(0.833357 4.54704 2.31109e-17)
(0.348854 2.94975 1.12953e-17)
(0.832518 5.03286 2.11517e-17)
(0.757915 5.38769 1.9846e-17)
(-0.886777 -0.727418 6.85143e-18)
(-0.285118 2.40857 1.09768e-17)
(3.4638 5.56767 6.6472e-18)
(-0.0715292 5.3776 1.37891e-17)
(0.0399506 -0.293123 6.22319e-18)
(-0.378023 1.62966 3.12689e-17)
(2.61854 -3.84928 1.04207e-17)
(1.33677 -1.88055 2.34796e-17)
(0.465253 2.96596 1.77017e-17)
(-0.0231681 2.96564 1.22429e-17)
(1.51912 -3.60676 1.53297e-17)
(-1.10524 0.513892 4.76902e-18)
(-0.857416 -0.620909 1.33381e-17)
(1.81748 4.79256 2.07932e-17)
(0.111115 -0.347908 5.21254e-18)
(3.23664 5.77199 7.68224e-18)
(-0.624136 -0.425778 6.01161e-18)
(-0.463038 0.34603 3.92535e-18)
(-0.108069 0.327729 1.00226e-17)
(0.780895 6.1988 1.58572e-17)
(2.41128 4.59043 1.17721e-17)
(-0.929418 -0.00691623 6.27414e-18)
(-0.702694 0.278073 6.52203e-18)
(-0.897845 -0.806089 1.12083e-17)
(-0.790998 -0.752302 5.24823e-18)
(3.14102 1.32231 6.76152e-18)
(-0.789258 0.267974 4.59834e-18)
(2.52879 -4.0531 1.42187e-17)
(1.54846 -3.09473 1.89687e-17)
(-0.489425 -0.106931 2.17734e-17)
(0.905132 -2.98105 1.79183e-18)
(3.16025 0.631735 7.62055e-19)
(0.578931 6.33565 1.1932e-17)
(4.39011 2.61767 1.97788e-17)
(-0.538471 -0.368556 1.97794e-17)
(0.596385 3.50575 2.45228e-17)
(-0.450257 4.34461 1.98028e-17)
(-0.315466 -0.331025 9.16511e-18)
(-0.522845 -0.539582 1.54379e-17)
(-0.288857 0.273292 4.45933e-18)
(-1.19019 0.689972 4.46862e-18)
(-0.383007 0.281887 2.44335e-18)
(0.594138 0.52446 -2.85952e-18)
(0.946312 -2.6367 -6.27212e-18)
(-0.897967 -0.796232 1.08666e-17)
(0.104742 -0.4463 5.95918e-18)
(-0.509292 0.379113 1.56991e-17)
(0.711237 3.94038 2.38782e-17)
(-1.12267 0.161335 7.33957e-18)
(0.139847 0.572726 6.64151e-18)
(2.65036 -4.05898 9.65643e-18)
(4.60842 3.67417 1.82276e-18)
(1.06932 -2.89798 1.44715e-17)
(-0.713544 -0.696462 5.16856e-18)
(1.72093 -3.42822 1.6776e-17)
(-0.344691 0.921079 2.413e-17)
(-0.596338 -0.568727 1.28469e-17)
(0.823417 4.38942 2.39726e-17)
(1.81138 -4.44853 1.45398e-17)
(0.716875 5.0905 2.0836e-17)
(-0.759889 0.409905 2.90755e-18)
(0.0706803 0.341149 9.11428e-18)
(-0.0784042 -1.7914 2.90233e-17)
(-0.049994 0.149267 6.04039e-18)
(-0.822723 -0.878805 8.99168e-18)
(-0.183737 5.41847 1.72794e-17)
(3.52811 5.82133 2.66156e-18)
(0.74495 4.57017 2.15778e-17)
(0.431945 -0.00390671 4.57922e-18)
(-1.0546 0.458226 3.68772e-18)
(-0.44267 -0.51973 3.18345e-17)
(-0.706922 -0.343677 4.72559e-18)
(1.86903 -4.38264 1.35548e-17)
(3.17167 1.91166 2.89317e-18)
(-0.821253 -0.737745 1.44018e-17)
(-0.204649 -0.387062 8.62507e-18)
(0.0378332 -0.0646078 2.05388e-17)
(0.185508 0.147245 -2.35588e-19)
(-0.519608 0.187449 4.35097e-18)
(0.270659 -2.17767 2.7442e-17)
(0.690534 5.47835 1.91522e-17)
(4.61922 0.979912 3.70637e-18)
(0.534691 6.24444 1.48036e-17)
(0.125118 -0.401366 5.44572e-18)
(0.434569 -0.168711 5.764e-18)
(-0.849964 -0.22116 3.1698e-17)
(1.63919 4.77369 2.00151e-17)
(2.33471 -0.408563 2.09794e-18)
(-0.470211 -0.538803 5.23267e-18)
(2.86081 5.85992 8.64497e-18)
(-0.0657534 2.80433 1.36283e-17)
(2.45879 -4.68013 1.11564e-17)
(0.196526 0.493662 1.05852e-17)
(-0.691236 0.0434973 6.04787e-18)
(-0.879207 -0.829583 1.71692e-17)
(-0.618093 2.77185 3.07947e-17)
(-0.61692 0.286497 3.08008e-18)
(4.97723 1.75439 1.29902e-17)
(-0.778509 -0.924574 6.40897e-18)
(0.132468 5.94003 1.52886e-17)
(0.423883 3.05564 1.52658e-17)
(-0.313709 0.481274 8.92289e-18)
(0.431983 -0.00302438 5.32104e-18)
(3.55324 1.30537 -1.56128e-17)
(0.690749 -3.42965 2.17148e-17)
(1.996 -4.61123 1.25597e-17)
(4.7132 3.87954 1.08097e-18)
(-0.882814 -0.941884 1.74071e-17)
(2.73217 5.57537 5.91745e-18)
(1.18533 -3.60912 1.70617e-17)
(-1.18218 0.620618 2.752e-18)
(-0.222261 5.34731 2.32495e-17)
(0.16246 3.29996 1.45944e-17)
(-0.421269 0.180784 3.67405e-18)
(-0.811587 4.85724 1.44824e-17)
(-0.406165 -0.63571 1.62566e-17)
(4.65879 0.294782 8.65131e-18)
(-0.100648 -0.330455 6.29579e-18)
(-0.388094 -0.478853 9.15044e-18)
(0.445616 -0.0644714 5.76163e-18)
(-0.423373 -0.603469 1.55845e-17)
(0.0960072 0.0083317 -1.39905e-17)
(-0.51042 -0.353354 2.11332e-17)
(0.940387 -3.84261 1.97402e-17)
(0.384172 2.5837 2.95956e-17)
(0.807166 3.71635 2.45327e-17)
(-0.559999 -0.853087 3.69692e-18)
(-0.5631 -0.685009 1.3767e-17)
(0.315753 -0.802695 1.91273e-17)
(-1.08494 0.98639 3.12854e-17)
(-0.839613 -1.05082 1.5174e-17)
(-2.3701 1.18745 2.44446e-17)
(-0.361951 0.0593688 2.58382e-17)
(-1.08133 0.019808 6.1002e-18)
(-0.0149442 -0.571074 8.23338e-18)
(0.808213 4.00313 2.44262e-17)
(0.722315 0.39069 1.87827e-17)
(0.751788 3.37157 1.91772e-17)
(-0.955736 0.335359 9.68604e-19)
(0.738971 4.29181 2.29123e-17)
(0.13873 -0.544574 6.63745e-18)
(2.39415 -4.76946 9.02683e-18)
(-0.663033 -0.797021 1.93553e-17)
(-0.220307 0.0679748 4.49188e-18)
(0.163295 0.427282 7.34068e-18)
(-1.12795 0.604065 3.4086e-18)
(1.46703 -4.28533 1.51158e-17)
(1.14864 -4.82317 1.57467e-17)
(0.650805 4.5194 2.18362e-17)
(1.29216 -1.70804 -6.19386e-18)
(-0.838627 -1.02187 2.7811e-17)
(-0.997614 4.86974 1.61835e-17)
(-0.248935 -0.546039 1.00833e-17)
(-0.419767 -0.715547 4.02297e-18)
(-0.667257 -1.1333 9.62563e-18)
(2.08045 -5.2977 1.00554e-17)
(-0.86937 0.348372 4.27247e-18)
(4.84686 2.11005 1.65962e-17)
(-1.43546 1.30394 3.12084e-17)
(1.27159 -5.09932 1.4188e-17)
(3.23156 6.1796 2.23599e-19)
(-1.24867 3.7324 2.1543e-17)
(-0.427067 0.24762 2.11777e-18)
(-0.681122 0.0957045 2.66886e-18)
(-0.734703 -2.46859 2.80699e-17)
(-1.02259 -1.99059 2.89899e-17)
(-0.13102 5.73486 1.44697e-17)
(0.450816 5.92141 1.57978e-17)
(-0.863234 -1.14631 2.79248e-17)
(2.52235 5.7386 1.26445e-17)
(0.789203 5.15415 1.98221e-17)
(0.103037 -0.0282578 -2.85377e-18)
(-0.261529 -3.64059 2.32569e-17)
(-1.22107 0.440639 4.70711e-18)
(3.4588 1.46461 2.26824e-18)
(1.85567 5.6371 1.67828e-17)
(4.90491 3.64432 -1.40623e-18)
(-0.348588 -0.679905 1.3746e-17)
(0.0880741 -0.592449 7.75022e-18)
(-1.46463 -0.85876 3.04159e-17)
(-0.702469 0.0405535 2.35192e-18)
(2.0418 -5.15391 1.28053e-17)
(-0.5498 -1.05728 5.71408e-18)
(-0.755075 -1.35757 2.28183e-17)
(1.45206 -5.78546 1.15013e-17)
(-0.168905 -0.274067 6.42386e-18)
(-0.354772 -0.737399 1.43553e-17)
(-0.0814286 0.289514 9.20727e-18)
(0.269054 0.120528 3.86113e-18)
(-0.353525 -0.789626 1.77906e-17)
(0.566625 2.20967 2.65295e-17)
(-0.380926 -0.748288 1.74836e-17)
(0.038933 -4.11821 2.14373e-17)
(-0.269814 -0.603886 8.86654e-18)
(-0.208147 -0.617521 1.01713e-17)
(-0.953874 0.43063 2.60762e-18)
(0.751468 2.78825 2.5293e-17)
(0.0250223 -0.066591 -3.66662e-18)
(-0.581937 -1.07561 3.17285e-17)
(0.120604 3.15904 1.47894e-17)
(0.924008 3.68495 2.54113e-17)
(0.233672 -0.463461 6.91257e-18)
(-1.72324 -0.42149 2.96776e-17)
(-0.113647 0.0763275 2.00236e-17)
(1.82488 -5.22204 1.25234e-17)
(-0.955505 4.84545 2.57143e-17)
(2.0704 -5.41987 9.84375e-18)
(-0.984558 0.177999 1.28355e-18)
(-1.54558 3.8966 1.87296e-17)
(0.128209 -0.218105 5.83499e-18)
(0.0343927 -0.482765 -5.71865e-19)
(0.398951 0.0064768 5.26645e-18)
(-0.0838128 0.744384 9.06271e-18)
(0.446468 -5.13767 1.73833e-17)
(0.836927 3.84824 2.47455e-17)
(-0.34906 -0.120002 3.56549e-18)
(2.32481 0.659213 -1.10223e-18)
(-0.644774 -1.34664 1.61155e-17)
(0.0170838 5.70653 1.51255e-17)
(-0.635035 -1.23976 3.55884e-17)
(0.6584 5.28378 1.89385e-17)
(-0.280739 -0.290763 3.18648e-17)
(-0.555289 5.32705 1.54567e-17)
(0.0486843 -0.359651 7.13682e-18)
(0.00685182 0.165386 1.93651e-18)
(0.824107 4.16892 2.2742e-17)
(1.53402 -5.97703 1.08159e-17)
(0.0802884 -0.0420134 7.13928e-18)
(4.91813 3.99361 -2.25146e-18)
(-0.174225 -0.274285 -2.57135e-17)
(-0.232659 -0.838535 5.08939e-18)
(-0.836732 0.0439835 3.14895e-18)
(-0.297948 -0.617567 1.04904e-17)
(0.609622 -5.46915 1.60618e-17)
(-0.703658 -1.5544 3.79567e-17)
(0.762362 -0.875915 2.20576e-17)
(3.14208 6.19576 1.49086e-18)
(2.50122 0.578591 -9.56177e-18)
(2.91468 0.876034 -9.88894e-18)
(0.710728 3.39926 1.85907e-17)
(0.768162 -3.25907 -7.60552e-18)
(0.339753 0.0627937 4.42541e-18)
(-0.0114962 -0.101854 -1.08362e-18)
(-1.08499 4.76828 2.33701e-17)
(0.880134 -3.8831 6.07476e-18)
(0.853909 4.48467 2.15784e-17)
(-2.86386 0.552423 2.26181e-17)
(0.808164 -6.12958 1.252e-17)
(-0.699116 -1.59321 3.2594e-17)
(-0.649432 -0.196194 5.57785e-19)
(-0.385385 -1.0597 3.0736e-17)
(-0.356629 -1.23055 7.98751e-18)
(-1.19584 0.310809 3.00432e-18)
(-0.221437 -0.755905 1.41244e-17)
(-1.68355 4.30203 1.6521e-17)
(-0.241412 -0.746562 1.68069e-17)
(0.881276 -0.0466274 3.8794e-18)
(1.00287 2.34696 2.64544e-17)
(0.0999074 0.366785 1.08316e-17)
(-1.18723 -3.77429 2.26815e-17)
(-0.150357 -0.681579 5.09762e-18)
(-0.426034 -1.24733 3.67999e-17)
(-1.10329 0.210842 1.87711e-18)
(0.601634 1.07719 2.30165e-17)
(-0.501822 -0.0975525 6.72887e-18)
(1.82822 -5.78765 1.02053e-17)
(2.55624 6.37605 5.9513e-18)
(-0.580178 0.418074 1.55587e-17)
(4.04987 4.93139 1.4205e-17)
(1.02374 -4.37364 1.27559e-17)
(-2.04125 2.65843 2.10535e-17)
(-0.207427 -0.92056 1.86228e-17)
(-1.8522 -2.12713 2.63876e-17)
(2.89078 1.19628 3.00167e-18)
(-0.703203 -0.289956 2.48342e-18)
(0.299253 -0.52391 7.24637e-18)
(-1.61408 -2.65572 2.61857e-17)
(1.05836 2.7223 2.68824e-17)
(-0.480717 -1.5882 1.8975e-17)
(0.912818 -6.37839 1.15453e-17)
(-0.918957 -4.25934 2.1384e-17)
(0.517812 -0.412635 -1.34776e-18)
(-0.130467 -0.924417 2.20885e-17)
(0.0555922 -0.61252 8.71046e-18)
(-0.814623 0.109737 5.31936e-18)
(-0.0179078 0.643666 8.92802e-18)
(-0.52705 -1.62105 4.29736e-17)
(0.788014 -2.94409 -9.71649e-18)
(1.51939 -6.40921 6.81569e-18)
(-2.13778 0.678344 2.84167e-17)
(2.84711 0.313148 -3.72702e-18)
(-1.83524 4.27691 1.97565e-17)
(1.01925 3.39738 2.58711e-17)
(-0.196345 -1.01721 5.1504e-18)
(0.709006 -4.62907 1.23919e-17)
(-0.431591 -5.33169 1.76851e-17)
(1.77558 0.596607 1.68625e-17)
(0.331325 -0.142639 5.84252e-18)
(-0.261855 -0.687505 1.00431e-17)
(-0.800942 -0.0496452 3.33347e-18)
(-1.20747 4.93529 1.47573e-17)
(-0.603905 0.29879 3.61654e-18)
(-0.564622 -1.74595 4.16852e-17)
(0.254879 0.223162 6.88421e-18)
(0.0748792 -0.459799 7.37369e-18)
(1.08937 3.93032 2.02744e-17)
(-2.28163 -1.05139 2.72479e-17)
(-1.02685 0.328837 8.99991e-18)
(0.7528 4.85541 2.07606e-17)
(-0.172499 -5.71074 1.6814e-17)
(-0.320434 -1.42255 1.2484e-17)
(-0.0402306 5.20573 1.56711e-17)
(0.972686 3.59558 2.50547e-17)
(-0.651421 -0.17298 3.43443e-18)
(-2.21093 3.26234 1.76726e-17)
(1.02998 -6.87971 7.92378e-18)
(-0.245466 -0.655098 9.3623e-18)
(-0.225931 -0.96481 3.0165e-17)
(-0.529631 -1.90293 3.31179e-17)
(-0.325767 -1.15904 3.56231e-17)
(1.78235 -5.86346 1.15987e-17)
(-1.17639 4.58655 1.43527e-17)
(0.183846 -6.35272 1.43587e-17)
(0.0190728 0.173966 -7.33642e-19)
(4.90094 3.76565 4.43879e-18)
(0.338586 0.0240605 6.21765e-18)
(-0.0408829 -0.809695 1.93534e-17)
(-0.410872 -1.56441 4.36708e-17)
(0.108172 0.0681865 -2.02478e-19)
(0.313556 -0.478503 8.26038e-18)
(-0.0173848 -0.923969 1.68243e-17)
(-0.425039 -1.77324 2.64146e-17)
(-1.7325 4.27617 2.37178e-17)
(0.163381 -0.572982 8.67575e-18)
(2.81805 6.51276 4.38859e-19)
(1.04868 4.10675 2.23938e-17)
(-0.998308 0.166412 3.91163e-18)
(1.45323 -6.44902 1.13214e-17)
(-2.32897 3.41784 1.73658e-17)
(0.977587 0.620472 2.47028e-17)
(0.135168 -0.527908 7.75998e-18)
(0.0375115 -0.613788 5.25403e-18)
(0.181678 0.2511 2.51573e-18)
(1.42537 -6.01388 9.85549e-18)
(-0.513763 4.83562 1.4957e-17)
(-2.49473 -0.467102 2.57322e-17)
(1.18977 1.22815 2.73764e-17)
(0.576249 -3.62507 4.57792e-18)
(-0.389917 -0.0943853 7.04168e-18)
(1.29851 2.23275 2.73374e-17)
(-0.0247863 0.294705 1.92658e-18)
(-0.44816 -1.74711 4.35471e-17)
(-0.893658 0.0403727 2.45483e-18)
(-0.666369 -0.292553 1.63809e-18)
(0.324796 -6.61287 1.16977e-17)
(-0.168144 -0.659612 1.02117e-17)
(-0.565831 -0.0801642 2.28424e-18)
(2.31776 6.46252 7.75869e-18)
(0.0475733 -0.961092 4.4027e-18)
(0.612342 -3.25626 -2.77764e-18)
(1.05169 -6.99557 6.15509e-18)
(-0.673525 -0.0498321 1.75295e-18)
(0.0189082 -0.00305426 2.54593e-18)
(0.125769 -1.03859 1.9411e-17)
(0.528942 -2.3555 -1.05702e-17)
(-0.322965 -0.675864 9.05818e-18)
(-1.85066 4.29965 2.00937e-17)
(0.825756 -4.36007 9.71524e-18)
(0.768796 -1.2551 2.08666e-17)
(-0.504512 -2.03137 3.74574e-17)
(1.2834 2.49429 2.77894e-17)
(4.74223 4.05905 8.12556e-18)
(0.969529 4.22772 2.20554e-17)
(0.456442 4.72828 1.86155e-17)
(-0.122453 -1.40621 1.04188e-17)
(0.512116 -7.10876 9.8889e-18)
(-0.0736452 0.00714914 1.89915e-17)
(-3.0451 -0.413874 2.02575e-17)
(-1.88823 -3.80692 2.00649e-17)
(-1.69878 -4.32716 1.92324e-17)
(-1.21967 -5.36001 1.68108e-17)
(-2.3799 3.6881 1.84719e-17)
(-0.0471846 -0.411545 7.55568e-18)
(-2.66515 2.01719 1.80214e-17)
(-0.587416 -0.214997 3.96354e-18)
(0.889289 -4.5396 1.06861e-17)
(-0.0829138 -0.59797 8.0189e-18)
(0.286817 0.134112 4.49958e-18)
(-0.358632 -1.42597 4.1056e-17)
(-0.464492 -2.02773 3.47438e-17)
(-2.28381 -2.67531 2.22566e-17)
(-0.548355 0.319569 7.26643e-18)
(0.0924957 -0.846063 3.09486e-17)
(-2.45077 -2.11929 2.22243e-17)
(-0.0665983 -0.980654 3.54316e-17)
(0.649002 -3.00311 -8.93781e-18)
(-1.0148 -5.79195 1.62091e-17)
(0.246032 -0.336233 3.65466e-18)
(0.279779 0.234609 3.82975e-18)
(1.24759 3.17401 2.56365e-17)
(-0.824303 0.239594 6.29444e-18)
(-0.404591 -1.64802 4.16115e-17)
(0.190816 -0.703322 4.78773e-18)
(1.18948 -6.60939 1.32906e-17)
(0.654216 -5.29653 9.59992e-18)
(-2.77984 2.30415 2.04154e-17)