/*--------------------------------*- C++ -*----------------------------------*\
  =========                 |
  \\      /  F ield         | OpenFOAM: The Open Source CFD Toolbox
   \\    /   O peration     | Website:  https://openfoam.org
    \\  /    A nd           | Version:  8
     \\/     M anipulation  |
\*---------------------------------------------------------------------------*/
FoamFile
{
    version     2.0;
    format      ascii;
    class       surfaceScalarField;
    location    "0.1";
    object      alphaPhi0.water;
}
// * * * * * * * * * * * * * * * * * * * * * * * * * * * * * * * * * * * * * //

dimensions      [0 3 -1 0 0 0 0];

internalField   nonuniform List<scalar> 
2805
(
-4.14794e-07
4.85074e-07
0
0
-1.35363e-05
2.0068e-08
-2.00868e-08
6.05443e-14
2.78972e-09
-4.65118e-07
-3.56357e-08
0
3.20303e-09
-1.89105e-10
1.11884e-08
-1.25448e-12
6.94665e-09
-8.93912e-11
1.32753e-11
1.17581e-09
-2.01501e-08
-8.25966e-11
1.31953e-11
-1.04573e-12
4.32878e-14
9.62321e-12
1.16685e-14
-3.9755e-13
-5.97127e-14
5.06992e-14
-7.87286e-15
-9.3824e-30
-2.58573e-23
1.70216e-24
-9.39838e-30
6.04736e-33
1.25188e-14
1.61306e-15
2.18277e-14
1.2331e-13
0
0
4.9105e-15
-1.57479e-15
6.46032e-11
2.8709e-12
-3.41113e-10
3.76306e-30
-1.54431e-27
2.45428e-29
-2.47964e-17
3.68505e-17
-6.55495e-16
4.21427e-16
9.07688e-16
8.25158e-31
0
1.67938e-33
-4.40358e-33
1.1549e-35
6.17594e-33
-1.27451e-31
-8.0682e-07
-5.25284e-05
5.32373e-05
1.53844e-08
0
-1.37335e-08
-9.208e-05
-0.00110372
0.0011958
-2.15764e-16
2.78358e-17
3.71309e-31
3.64088e-34
-1.02948e-08
1.09621e-08
0
2.64893e-15
1.18566e-15
-8.21765e-07
7.56654e-09
6.88319e-19
0
3.00687e-30
-1.04151e-28
-4.00325e-09
5.88533e-08
0.000969427
-0.00106151
1.7435e-16
2.35783e-32
2.1232e-31
9.04752e-13
5.11652e-11
-4.25801e-34
1.94283e-16
-6.71612e-15
6.09712e-05
0.000738774
-0.000873124
6.94143e-10
3.42928e-11
-7.26687e-10
0.000350854
-0.000826275
-0.00013113
0.000906244
-0.000212933
-0.000764676
7.93531e-07
-2.40233e-06
1.86297e-07
-1.05352e-07
9.23624e-09
4.48658e-09
4.72917e-16
-4.99958e-15
3.25564e-18
4.36423e-14
-1.38781e-26
-2.5018e-28
3.95808e-16
-2.0814e-15
7.5795e-13
-8.10425e-13
5.59749e-14
-8.65719e-07
1.60363e-05
0.000903229
2.26357e-06
0.000748741
-1.37096e-38
-6.22459e-41
1.00659e-40
-1.23831e-15
7.88868e-17
-4.01386e-36
-6.84501e-30
9.08294e-16
-8.59848e-15
-0.00115401
0.000769411
0.000384598
4.23513e-18
0
-0.000749072
0.000390668
-5.35589e-39
5.35995e-39
-4.24818e-42
1.1837e-21
-2.01503e-19
1.0439e-09
6.95221e-16
-6.38295e-14
0
2.80895e-13
-4.24501e-14
-4.01235e-36
2.83013e-39
-0.000184582
-0.00138494
0.000281216
-0.000999491
-0.000385448
-7.62787e-15
3.83426e-15
-1.07891e-15
-0.000335934
-0.000539486
-0.00132274
0.000323249
-0.00149274
0.000728067
5.26381e-19
1.90361e-14
-1.99553e-14
1.32469e-14
1.97487e-34
4.63937e-34
-0.00105871
0.000530581
0.000528129
5.14704e-13
-8.90339e-11
-1.02544e-08
2.83604e-22
8.37991e-22
-0.000156301
-9.04093e-22
2.09476e-22
3.50018e-08
7.08105e-13
-1.032e-12
-6.75679e-36
6.74284e-36
3.37266e-37
-1.77634e-36
2.11997e-12
1.24791e-14
0
-2.42528e-15
0
2.10558e-14
2.94097e-19
6.43365e-18
-0.000657117
2.39617e-05
1.60058e-07
-2.0926e-07
-2.92731e-37
-7.49212e-38
-5.25414e-15
-7.37192e-15
4.23306e-11
-1.48536e-12
-1.12005e-10
9.63003e-13
2.1787e-36
-2.33293e-35
1.50352e-37
1.12354e-36
1.9266e-17
7.39462e-15
-0.00133982
0.00126118
7.86169e-05
1.86588e-11
-6.45962e-10
8.76591e-12
7.35909e-17
-8.46113e-17
4.81254e-44
-6.23564e-41
2.13352e-12
-0.000651731
4.80224e-05
0
1.04599e-09
-5.66479e-09
0.000415687
-0.00107235
0.00065666
-0.00107385
-0.000418894
0
-3.69989e-10
9.47344e-11
6.04691e-33
-2.67562e-39
3.66138e-28
-2.2405e-26
0
-0.00161334
2.35626e-10
-1.06856e-08
-0.00309866
0.00270223
-2.1769e-05
-4.73232e-09
-7.45977e-13
5.35331e-39
1.14543e-41
-6.36802e-17
2.28947e-15
-1.85925e-14
5.68783e-16
4.64613e-16
-0.000217015
-0.00110572
5.18768e-12
-0.00119606
0.00311676
-0.00192069
-0.000259784
-0.000334059
1.45415e-12
4.59279e-15
-5.337e-15
-7.03202e-16
-0.000643023
2.26346e-13
1.39272e-13
-4.58388e-15
2.32413e-09
1.65574e-08
-6.68744e-17
2.8179e-16
1.13078e-09
-2.90011e-06
-5.34532e-36
0.000875854
-0.000882171
-4.76087e-11
1.6372e-10
8.74488e-11
-2.11435e-12
-0.0018978
0.000701741
1.53193e-18
1.22619e-14
-3.39501e-46
3.55698e-44
-4.019e-29
0
0.000137466
0.000393116
-0.00352405
2.67622e-15
-6.52104e-15
1.32195e-12
-4.43657e-14
5.5807e-11
4.3858e-16
2.95513e-17
0.00184833
-1.73895e-06
-5.31139e-10
-0.000302867
2.13271e-06
-0.000844882
0.000147589
0.000697293
-0.000325089
-0.000747257
2.68045e-15
1.13638e-13
-0.00389587
1.03215e-06
-0.000623817
0.000482296
0.000141521
1.15309e-13
3.99429e-17
-6.34999e-16
0.000139649
0.000297342
-0.00119611
-0.000417225
5.41563e-12
1.16201e-08
6.58223e-10
9.00461e-11
-2.09705e-13
-0.00114586
-0.000193841
0
-2.13479e-05
1.28684e-18
-8.80466e-19
-4.00041e-18
0.000870714
3.4021e-14
-1.16619e-13
-5.1118e-20
3.11129e-22
2.12419e-13
-6.29038e-15
1.84446e-22
-1.92903e-21
-7.22355e-22
2.7685e-36
6.03865e-33
-0.0013171
0.000889924
0.000427178
4.36377e-18
3.01365e-19
-3.62773e-06
-9.86176e-07
0.00016599
-0.00124777
4.08578e-16
2.45987e-16
-1.65272e-23
9.45108e-25
1.11362e-24
-0.00153017
-0.00117114
0.000423882
6.59193e-18
-1.15803e-17
9.46911e-13
-0.000133266
-0.000173701
2.34725e-15
1.42383e-19
3.8961e-18
-0.00391971
-6.95543e-26
2.32695e-27
3.5479e-26
1.16457e-19
2.10486e-19
1.71709e-20
-7.89184e-20
1.60138e-18
-1.09183e-17
-2.33898e-10
5.05502e-14
-1.23185e-14
-2.11861e-15
1.13175e-12
1.18486e-23
2.13541e-15
-3.93103e-17
1.40578e-15
-3.09358e-15
-1.20845e-15
-7.96596e-15
-0.00408718
0.000147296
2.34481e-13
-6.33007e-22
1.38167e-17
-8.24942e-18
5.64411e-20
-9.41824e-22
-3.08995e-27
0.00104417
7.04354e-48
-3.46363e-46
2.3473e-18
1.22104e-17
-0.00110953
3.80755e-06
2.67166e-18
-0.000316753
7.92227e-15
4.32185e-24
-6.5977e-22
1.06651e-14
4.05945e-28
-1.14053e-27
-0.000133427
1.07405e-07
0.00098119
-0.000883598
0.000214521
4.62396e-22
5.46017e-20
7.57688e-20
1.51396e-19
-4.67954e-13
7.49778e-14
0
3.94194e-37
-3.95448e-37
1.89741e-21
1.54872e-29
3.4909e-28
0.000147589
1.03156e-17
2.53076e-18
1.05463e-17
-4.8015e-19
3.93701e-16
9.61649e-16
-0.00408718
2.7685e-36
5.67116e-42
1.87285e-22
-1.7064e-21
-1.54871e-15
-6.03847e-17
3.35927e-16
5.58069e-17
0.00142705
-0.000697293
1.757e-14
-9.88159e-18
1.06726e-14
-5.51113e-06
-0.000993853
-0.000162623
-0.000536382
-0.00270238
-0.00138481
2.87791e-22
-4.98826e-24
1.44225e-13
-0.00124136
-0.000288737
-2.68604e-23
1.53124e-23
2.39185e-36
-5.59754e-37
-3.20469e-24
1.88872e-24
-2.1598e-23
5.93912e-19
1.77887e-19
5.67504e-20
4.28305e-17
-2.95278e-41
7.20483e-41
5.03127e-05
1.02739e-33
7.72119e-36
0.00073547
-0.00112092
5.72534e-11
-5.18542e-11
0.000925045
-0.00111899
3.81043e-15
0.000223271
2.81808e-20
-1.98117e-19
-0.000486352
-6.25056e-11
-1.44099e-25
8.48648e-27
-4.63518e-27
-4.51453e-41
1.9483e-41
2.47372e-15
-1.49637e-14
1.66479e-15
2.61922e-30
-1.52098e-29
6.49293e-14
1.69355e-20
-1.65887e-14
-0.00270238
-1.09277e-35
1.02535e-24
2.8299e-22
-9.20055e-12
-1.06741e-08
-0.000108006
-6.38133e-05
-0.00311676
0.000414381
1.61908e-19
-5.70738e-21
1.59119e-23
1.49412e-18
4.30154e-17
-0.000889914
-0.000171593
1.15654e-31
6.28127e-31
-1.51379e-23
1.64711e-18
0
-0.000240312
0.000722609
8.4037e-24
-2.98822e-22
2.7515e-15
-8.57982e-15
-0.000184468
2.21186e-26
3.52524e-14
-6.37495e-15
6.59301e-18
-8.42607e-54
1.75125e-50
-1.43884e-19
2.69464e-15
-5.71375e-28
5.6117e-29
2.50948e-29
1.0488e-11
-2.96416e-13
-4.19217e-15
-4.7209e-17
2.57975e-26
-0.00118988
5.76703e-15
4.53547e-30
-3.43046e-28
7.16547e-25
-4.42307e-26
-1.7214e-29
2.70474e-30
-6.2635e-29
-0.0014145
3.69145e-14
7.7061e-21
2.33732e-20
5.60672e-19
4.34926e-22
-0.000154444
9.442e-22
2.11868e-21
2.43252e-15
0.000441615
-0.000681927
-9.77756e-31
1.01771e-31
2.03136e-14
-1.8221e-14
4.09577e-15
1.33113e-24
4.90751e-29
-1.0928e-05
-5.42942e-05
6.18983e-14
4.69873e-22
-4.25148e-42
1.306e-46
3.8186e-30
-1.60053e-28
2.08547e-16
0.000994115
-0.000990307
1.4515e-32
-1.0313e-31
1.56196e-41
6.25038e-21
5.50758e-19
1.71779e-27
7.07835e-25
2.56864e-16
-6.97009e-06
0.000170308
-8.1867e-32
1.16655e-33
2.77748e-16
3.96056e-16
6.94616e-25
-6.54685e-25
-9.01417e-42
2.70643e-39
3.07398e-41
-5.78603e-45
-4.67066e-31
0
-3.58136e-34
5.72423e-37
-0.000540705
0.000682226
1.02494e-18
-8.46866e-28
4.72625e-14
0.000992904
-0.000987477
-4.25117e-06
6.22559e-06
-6.91797e-07
6.52911e-20
-7.20464e-22
2.26154e-26
-1.39396e-25
0
1.28024e-20
3.78902e-34
4.39209e-33
-1.5016e-25
5.4949e-26
-2.89967e-16
1.14185e-41
-2.2803e-42
-2.42254e-36
1.39409e-17
5.40994e-33
2.19473e-22
-1.65017e-21
1.00256e-27
-2.66514e-28
6.94154e-21
-2.19881e-15
1.74894e-16
5.43706e-23
-1.07047e-27
2.28942e-38
2.80174e-36
-1.78028e-36
2.08494e-39
0
0
5.15232e-27
2.76877e-26
-9.45181e-35
1.6305e-35
8.3002e-42
3.84408e-42
8.37785e-45
-0.000125093
1.15947e-25
2.46587e-24
2.12645e-22
-5.26289e-16
-3.5056e-16
-0.000126803
8.60545e-43
-1.18609e-39
2.62938e-18
-3.90309e-31
5.46601e-32
8.94433e-27
5.80149e-45
-4.51753e-45
1.19353e-23
6.90103e-21
-5.61766e-37
1.23576e-39
6.79325e-36
-3.14522e-07
1.07672e-06
3.08072e-41
-0.000934748
-0.000963054
0.000893573
-0.00107806
9.82155e-17
-1.8393e-16
2.60653e-16
2.69824e-05
2.42711e-42
-3.55071e-44
1.05936e-14
4.02463e-17
-1.05134e-14
1.64798e-48
-2.26909e-39
4.21094e-35
-3.17129e-34
2.12137e-32
-2.03913e-30
2.44989e-20
6.10755e-20
2.19173e-19
3.66759e-30
1.05042e-27
1.15734e-55
-8.5418e-54
2.64939e-14
-1.70279e-14
2.9573e-26
-3.18928e-28
-8.45735e-24
-1.87723e-22
2.08329e-23
-2.24094e-06
1.39937e-26
6.9882e-24
1.52471e-23
5.64442e-15
3.63619e-15
-2.43329e-36
9.87464e-39
-5.06235e-16
-2.93704e-25
-0.00126315
-0.000145588
-0.00101513
0.000843539
-5.91e-33
2.42679e-34
-5.71037e-48
1.08532e-41
9.7256e-45
1.52797e-14
-9.9106e-43
-2.44964e-32
7.3355e-33
-5.11078e-31
1.21893e-23
-7.32653e-43
-4.02291e-16
1.27752e-12
2.44848e-12
0
1.13335e-20
-2.23375e-39
4.90402e-24
-1.1933e-39
7.19289e-42
2.66349e-25
0.000580684
0.000141925
1.7619e-43
-8.7703e-48
1.36717e-36
1.47479e-35
-9.67285e-05
7.10478e-28
9.61427e-44
-1.00149e-44
1.8023e-27
3.04013e-34
1.05617e-26
-2.92886e-07
-6.6242e-15
-8.53957e-43
4.14074e-29
-2.39831e-16
1.3779e-16
-1.21771e-27
5.37749e-28
-5.73549e-32
1.44408e-33
-1.8779e-45
1.02686e-44
0.00024936
-1.1767e-06
-1.98377e-35
9.68682e-37
1.65296e-14
1.46903e-14
3.9198e-32
5.48786e-18
9.18824e-18
3.50187e-45
8.79509e-48
-1.10194e-47
4.08543e-30
-1.12002e-30
7.97959e-22
-0.000461811
-2.07838e-39
2.38587e-41
-1.65506e-33
1.63808e-34
0.000813156
-0.0009676
-3.23067e-17
1.16288e-24
-1.46741e-23
-6.15336e-06
-0.000977067
0.000792484
2.41091e-20
-2.3276e-24
5.83529e-45
2.62334e-45
-2.52683e-45
-4.28842e-43
1.21456e-23
1.60363e-26
2.26036e-47
2.94946e-51
7.27301e-37
-5.42235e-41
-7.47691e-43
1.51813e-44
1.37826e-37
8.9254e-44
-1.0014e-42
1.10552e-44
-0.000563631
0
-6.81929e-47
3.08951e-35
-2.23886e-06
5.2462e-25
-2.30115e-30
1.65623e-14
7.46799e-18
6.86092e-47
1.00325e-44
-2.36741e-47
5.69101e-47
-0.00026912
0.000710735
7.34418e-25
1.17437e-29
1.45745e-24
-3.034e-38
4.8489e-40
7.89992e-16
1.47632e-54
-7.10035e-56
-3.22503e-28
2.32461e-30
-1.6252e-42
2.06874e-44
-7.39016e-35
8.53338e-36
-3.62792e-16
-4.14769e-25
0.000995816
-0.00101472
7.29898e-15
7.27286e-48
1.02459e-27
2.21638e-46
-7.27652e-48
5.69293e-48
1.29691e-40
2.86303e-30
7.25947e-22
9.69417e-46
-2.62343e-34
1.56937e-35
-1.15915e-30
6.23057e-07
-1.58357e-14
-1.45509e-16
3.64376e-29
1.54971e-31
0.000890542
-0.00101734
2.84368e-18
4.1061e-20
-4.75177e-44
1.99076e-32
5.80595e-31
4.17718e-33
-7.68527e-34
4.17168e-21
9.66122e-21
7.29328e-37
6.36208e-23
-9.41666e-23
1.2566e-18
-5.10982e-18
-1.71134e-50
1.32263e-50
1.84071e-26
5.36425e-26
1.50054e-26
-5.64729e-41
1.63621e-42
-1.04222e-36
3.12542e-38
0.000474572
-0.000743692
8.37962e-19
1.58285e-19
-8.17636e-05
-3.06853e-17
4.21752e-17
-6.83422e-47
2.61842e-49
-0.000904019
-0.000111113
-0.000198737
0.000968148
-1.31991e-50
1.37521e-46
2.46529e-07
-4.9206e-11
4.75334e-48
2.37133e-47
-1.75833e-50
-1.43982e-42
-5.8149e-36
1.31034e-36
2.35833e-45
-1.5797e-46
2.48359e-24
1.26549e-19
8.17462e-20
2.49826e-20
0.000225559
0.000485176
-0.000133527
-5.24009e-42
2.04311e-35
2.13668e-16
1.3626e-50
2.15487e-26
6.27343e-23
1.09276e-07
-1.11133e-07
-9.08629e-05
2.38263e-38
-3.81501e-18
-3.75925e-50
-7.67204e-49
7.28643e-48
-1.45558e-50
0.000965571
-0.00106231
3.25266e-49
-3.67037e-51
4.25323e-22
-5.81575e-22
1.0291e-16
8.87797e-25
-9.25676e-33
-3.19792e-26
-2.66968e-25
-1.11531e-39
1.44169e-41
-2.24749e-48
2.08802e-47
2.32427e-24
3.66857e-51
1.01668e-20
1.52845e-21
5.49285e-20
-2.31621e-30
1.06913e-32
5.08422e-32
-3.65634e-30
1.53466e-14
-3.89094e-15
-0.000511619
-2.26878e-44
1.78528e-45
9.60521e-38
5.54507e-07
-2.28528e-06
3.77056e-21
1.24825e-20
4.63085e-25
6.79939e-51
-0.00139375
0.00124972
3.21575e-54
-5.66165e-34
4.77002e-36
3.71128e-23
1.04149e-23
-3.17944e-33
3.27293e-33
-2.95205e-33
-0.00092518
0.000726443
-6.1963e-37
3.92246e-38
-5.29966e-27
6.86211e-33
0.000244963
-2.92967e-06
-2.66633e-22
3.30629e-23
1.00371e-34
-5.06435e-33
-4.35769e-45
1.16363e-30
3.17899e-23
-1.12605e-06
-1.38857e-05
7.98055e-42
6.20907e-48
2.34808e-48
3.15581e-30
6.38094e-20
6.61893e-20
-3.6964e-23
1.2548e-22
0.000726597
0.000241552
-1.03048e-16
-1.62796e-25
1.16851e-15
-1.10672e-07
-5.2892e-42
4.10647e-44
1.83991e-26
2.52691e-30
-7.70578e-05
9.60078e-21
-3.40483e-22
4.8707e-50
1.51839e-34
1.53264e-25
-2.67597e-25
-2.08535e-47
4.47377e-47
6.56001e-47
-1.01522e-47
-0.000770331
5.78075e-34
6.33873e-39
1.00292e-25
-7.57034e-52
0.000806243
3.78999e-50
6.64459e-50
-2.52077e-17
7.02069e-54
1.45922e-50
-7.00951e-54
-1.63513e-38
5.19251e-40
-2.95196e-48
2.44946e-48
-1.92155e-54
5.03834e-53
-1.16364e-30
3.10675e-33
-1.23738e-43
5.9974e-49
1.97696e-38
4.29251e-52
-2.1014e-37
2.6289e-37
6.06591e-54
7.65062e-32
4.73601e-22
3.67458e-51
-7.01146e-54
1.04709e-37
-2.77039e-37
-3.5585e-06
-1.15647e-48
3.48972e-27
6.65649e-26
5.76982e-21
6.85471e-23
-5.17709e-05
-3.77506e-18
6.25643e-18
1.3874e-54
-0.000132696
-4.45692e-45
1.1396e-46
1.38663e-50
-8.52015e-38
5.85688e-39
6.47332e-41
-2.43853e-41
2.41811e-43
1.63751e-06
-7.5456e-15
7.3612e-15
8.87227e-14
-1.98577e-38
7.94422e-16
2.341e-24
-1.10382e-47
-4.77065e-43
5.7592e-22
7.73248e-23
1.7743e-24
-3.6412e-24
-9.522e-33
2.61853e-34
-9.18972e-36
-1.57887e-53
1.21231e-49
1.58473e-53
-1.99145e-53
-1.01815e-46
3.14962e-30
3.64461e-52
-1.38602e-54
0.000882539
-0.000278999
-0.00060354
4.0622e-25
-4.05184e-35
1.53773e-22
0.000359095
1.63278e-33
-6.50988e-10
-1.05839e-50
1.33447e-51
5.55291e-40
-3.19347e-33
1.03947e-35
2.92339e-26
0.0010311
-0.00103984
1.88e-43
-1.21516e-43
3.24342e-46
7.82831e-15
-5.01213e-15
1.87877e-34
-1.08681e-34
-1.52173e-48
-2.48307e-53
4.33895e-17
5.35111e-23
9.9067e-24
-1.14289e-49
6.98466e-54
2.66683e-57
3.29153e-54
9.26881e-26
-1.85021e-39
1.38421e-40
1.54538e-39
7.08503e-24
1.88523e-57
0.000467544
0.000414995
-1.18438e-48
2.79072e-50
7.0857e-54
-4.35923e-57
-2.42461e-36
7.09717e-39
-1.31479e-39
2.68381e-14
-9.32659e-12
-3.10616e-05
-2.0601e-51
2.76161e-51
3.35172e-07
2.4558e-23
-2.52218e-24
1.6787e-48
2.8568e-12
-2.07379e-10
3.24589e-24
1.33713e-25
2.14364e-21
-1.76827e-19
-1.53728e-17
-3.50009e-26
5.64657e-56
-3.41682e-28
-0.000927799
0.000250041
0.000677758
-1.20351e-45
9.58718e-57
-1.15132e-50
6.26123e-54
4.20709e-52
5.41624e-51
9.78616e-52
2.28545e-36
8.7846e-25
1.38737e-54
3.07865e-59
1.25375e-15
2.78384e-24
-1.23052e-20
8.35624e-23
-6.55872e-10
-0.000682226
0.000824151
-5.5104e-41
1.43298e-42
6.26928e-25
1.28558e-41
-2.59289e-18
-1.03072e-46
1.63319e-48
-3.49314e-61
-1.24396e-55
5.31603e-27
0.000201203
-0.000885405
0.000684203
6.47413e-33
-0.00100793
0.000896815
7.7974e-26
0.000100927
-0.00103567
3.51313e-53
0.000914116
-0.00100498
3.94206e-58
-5.62362e-48
6.2302e-47
3.59506e-15
5.49354e-19
-8.81233e-49
1.62259e-27
-5.31576e-27
1.63812e-52
-9.09383e-54
-1.36609e-43
1.90033e-45
8.45863e-24
-1.85749e-24
-4.07226e-52
4.5114e-53
-1.44501e-51
2.61482e-50
1.84494e-56
-0.000274386
0.000759562
2.92462e-57
1.15114e-58
6.83625e-18
1.52337e-35
-4.94155e-39
2.40216e-43
6.38513e-54
1.60898e-25
-2.79563e-57
4.53577e-36
0.000271693
-3.86886e-06
3.15144e-30
-1.68192e-33
2.8893e-17
-4.34631e-17
0.000971784
-0.00104884
-3.62966e-45
-1.15555e-50
-8.35212e-56
9.22869e-36
-1.80695e-42
0.000716124
3.08315e-29
-1.02205e-40
9.22287e-41
2.82603e-38
2.33777e-59
-1.25729e-45
1.48537e-48
2.0917e-15
2.55179e-36
-4.4803e-14
5.28635e-14
1.10939e-13
-6.12851e-52
-4.4843e-41
4.28033e-41
1.3247e-22
-2.64231e-50
3.05711e-52
-0.000968847
0.000835319
2.29513e-06
-4.99265e-15
1.06169e-39
-0.000158963
2.2151e-53
1.09708e-57
-9.43838e-59
4.38811e-46
0.0010125
-0.00106427
2.15112e-25
-9.80844e-26
0.000441738
-1.25312e-24
1.48459e-24
-1.63335e-41
3.92707e-41
2.76368e-26
-6.93503e-27
-2.08638e-57
2.92443e-53
1.86276e-24
-4.97314e-26
-2.4894e-52
1.25886e-29
-1.11798e-28
2.48602e-38
-2.24145e-37
9.08856e-35
-1.40193e-39
3.32534e-42
4.20309e-27
-3.93707e-58
3.11109e-55
1.15662e-26
-4.09273e-48
7.7702e-57
-3.49351e-56
-1.71247e-59
5.8593e-28
-2.6147e-50
3.36495e-50
5.89519e-15
-3.65231e-15
-1.50025e-41
5.21109e-43
8.40192e-55
-4.06517e-56
-8.65615e-49
3.6976e-51
6.5173e-56
-1.16775e-06
-2.08695e-57
1.14025e-61
-1.41909e-18
-2.5038e-22
3.80028e-06
-4.21194e-06
-1.16695e-13
-1.67555e-25
1.25303e-25
9.46421e-55
3.21143e-59
1.6036e-52
-2.02186e-53
6.82787e-05
-3.28383e-40
1.53557e-42
9.40431e-56
-2.09467e-51
-1.53442e-53
2.23272e-54
5.46816e-43
5.31896e-27
3.94029e-58
1.77287e-61
1.03959e-26
-3.72776e-27
5.2155e-07
4.54457e-54
-4.25016e-58
4.61761e-57
2.10028e-40
-2.18963e-43
5.85382e-45
5.03722e-26
3.59041e-28
0.00111682
-0.00112634
5.70956e-59
1.95803e-50
-1.02443e-58
0.000956524
-4.24079e-05
2.17393e-36
-1.08664e-36
3.92678e-59
2.64355e-60
3.54051e-28
1.76302e-55
1.6128e-28
-5.62451e-30
-2.0391e-19
9.84781e-44
-5.46758e-34
7.10423e-37
-4.05338e-36
-4.20336e-46
5.14624e-48
-5.14045e-05
1.00298e-15
-3.34246e-32
0
0
-1.99062e-58
-0.000874226
0.00074153
1.28954e-43
2.25332e-55
-3.31946e-05
3.00628e-61
-4.40773e-60
-2.53181e-52
5.12905e-54
2.97375e-62
7.50953e-15
8.49607e-62
4.52641e-57
-4.16479e-48
3.24488e-51
3.87511e-15
-4.46054e-18
2.37593e-14
-8.598e-20
-6.08727e-49
-3.80492e-58
2.62081e-38
2.05214e-39
4.78378e-38
2.36896e-33
-2.31025e-33
-1.09508e-54
1.80469e-54
1.23774e-38
-1.39482e-50
-4.94129e-46
2.51886e-29
-7.66087e-30
-3.63432e-05
5.93545e-46
2.01049e-27
3.91124e-29
2.40331e-54
-1.63657e-55
1.54008e-57
-3.18743e-42
2.63141e-42
3.71001e-27
-1.56238e-28
2.08904e-57
-5.82935e-59
2.74296e-52
3.17502e-58
-7.20318e-05
1.31051e-26
2.05128e-13
-4.32594e-14
2.76931e-29
-4.13766e-60
-1.67205e-63
2.97116e-30
2.54602e-57
1.49264e-48
0.000315563
-3.56762e-06
5.24893e-05
2.69105e-52
-1.93529e-51
1.40133e-53
-9.11944e-05
0.000846333
-0.000755138
2.65266e-21
-1.78827e-21
4.24734e-31
1.94739e-15
2.25217e-57
5.05217e-62
-1.14025e-50
1.14222e-56
3.04541e-54
-6.48382e-55
2.38546e-44
-3.25178e-44
-2.83248e-59
1.12543e-59
4.89598e-18
-7.05993e-62
2.68465e-61
-1.31483e-44
1.62201e-44
2.0178e-58
-8.22574e-62
3.5648e-06
-1.41606e-15
-3.5754e-12
3.91445e-12
2.40228e-21
-4.18596e-14
-2.25277e-26
5.46858e-28
-4.62821e-57
-4.96026e-54
-1.97748e-60
1.04907e-29
-3.27295e-30
-1.05255e-54
1.17712e-53
6.06987e-42
-3.60822e-41
3.77772e-58
-7.6671e-45
4.12414e-45
7.89199e-60
-5.76973e-59
3.47163e-38
1.28538e-31
-2.68424e-61
1.47743e-56
0.00028044
0.000479122
7.03484e-18
-8.26304e-18
-2.17802e-45
3.09342e-45
-2.12336e-22
-1.35144e-21
1.80708e-28
-7.63448e-30
2.41179e-62
1.39301e-62
-4.4348e-50
-4.89915e-55
-9.14145e-57
1.32161e-56
-6.54929e-58
2.2837e-31
3.41117e-15
-2.23164e-15
-8.89418e-46
1.78852e-47
-3.71128e-06
1.40399e-59
-9.31468e-57
-3.89068e-05
2.25577e-63
1.65339e-66
-2.33582e-60
1.0228e-60
2.06425e-58
-8.4749e-62
5.48933e-17
7.00736e-57
-7.66744e-62
9.93415e-41
-1.19591e-39
-1.29581e-48
1.48957e-50
9.39444e-56
-7.39071e-57
8.48073e-62
1.53397e-64
-1.50078e-58
0.00087902
-0.000194817
-0.000845255
0.000686292
9.26455e-47
-1.45167e-27
5.72672e-64
1.60459e-18
-1.17419e-50
9.43991e-54
3.8955e-47
1.32102e-08
-9.42517e-44
3.01637e-46
2.58761e-61
9.69367e-62
1.02245e-63
-5.73845e-33
4.97785e-60
3.27381e-30
-1.593e-31
4.46031e-44
3.50195e-66
5.35672e-48
-4.9348e-54
1.66171e-54
-1.38734e-16
6.85831e-33
-1.37731e-32
0.000550431
0.000328589
-4.6543e-54
1.87638e-56
1.77387e-33
-7.41223e-57
1.13302e-57
-3.14592e-58
-4.15063e-64
1.56326e-32
4.13654e-26
-1.22171e-26
-9.51985e-60
3.55929e-64
4.61769e-48
8.45545e-57
-1.64991e-57
1.61167e-40
-3.8484e-43
-8.37678e-57
9.75458e-58
-1.02223e-39
9.09555e-08
1.39117e-16
2.91187e-15
-2.31e-17
-2.31533e-61
1.96629e-62
3.25962e-51
-4.72695e-63
-7.87052e-67
-0.00110483
0.000619501
0.000186741
5.71568e-43
8.1707e-23
2.29544e-60
5.43396e-30
-1.50817e-31
1.73497e-32
-2.77636e-53
1.37704e-16
0.000691779
5.75852e-61
1.342e-38
-1.65346e-40
1.9264e-57
-1.41392e-21
1.39913e-65
6.49993e-59
6.31718e-58
-3.33697e-59
1.29261e-17
-9.33897e-18
4.38059e-59
-1.76227e-60
4.54557e-62
-8.6491e-63
-1.16987e-56
4.97651e-51
-2.83998e-52
1.01186e-32
-2.25707e-33
-1.42931e-57
2.433e-60
2.31281e-14
-5.98474e-20
2.4854e-62
-1.41941e-55
-5.91005e-65
3.30808e-48
-2.74849e-48
-7.55457e-63
2.37744e-63
4.7822e-41
-1.68533e-48
1.22794e-48
-0.000103724
1.04985e-34
1.03227e-15
-8.60622e-56
3.53995e-56
2.23338e-58
-1.71138e-59
8.75026e-18
1.68774e-31
-9.13914e-33
-5.85793e-58
5.30859e-58
1.1812e-34
2.61215e-63
-6.7368e-49
2.31891e-49
-4.62205e-64
3.01581e-66
3.38268e-65
-1.92719e-29
1.33462e-31
-1.16681e-65
2.54631e-65
-1.31616e-49
7.02118e-50
6.82234e-63
0.000946579
-0.000988987
-5.72387e-61
-6.17535e-67
-4.43427e-51
3.9387e-53
-9.07051e-12
-1.02398e-14
-3.90359e-38
2.56004e-40
-4.57301e-40
4.37727e-48
-7.49146e-48
4.21121e-17
-4.83619e-17
2.31455e-64
2.49206e-60
4.36727e-65
-1.80667e-66
-2.89041e-53
1.28745e-56
3.4108e-65
-5.9787e-65
0.000988987
-0.00102218
-0.000946579
0.000895175
1.53767e-59
-3.10202e-60
-1.38449e-62
-1.07077e-58
2.11363e-67
2.2573e-33
-1.09579e-34
4.62862e-51
-1.12048e-56
8.54002e-59
-6.70796e-45
1.12723e-45
-0.00105853
0.00102218
2.20641e-60
-9.01395e-62
2.88809e-19
2.17566e-18
-1.37303e-18
1.95384e-44
-1.62779e-43
-1.03224e-61
9.9966e-65
4.74042e-63
-5.13934e-62
7.20483e-65
8.14114e-37
1.10659e-61
-1.3911e-65
2.01842e-24
-6.05332e-36
3.96302e-64
-1.13902e-39
8.4797e-42
1.21931e-51
1.36022e-60
-6.9787e-62
-3.43801e-63
3.47078e-42
-2.5461e-65
3.91358e-60
2.49983e-33
1.37827e-28
-1.37919e-28
5.36034e-18
-6.95891e-64
2.43499e-65
1.03863e-52
-0.00100598
1.44703e-17
1.14671e-67
1.39186e-65
7.26575e-68
-3.5228e-58
1.0691e-58
1.20611e-53
1.04555e-50
3.00454e-65
-1.20758e-26
3.69034e-20
-3.58756e-20
-9.73536e-33
1.99759e-36
-5.51017e-56
2.83052e-70
-2.12141e-35
3.96175e-43
-7.59034e-43
-2.4335e-60
-2.52095e-62
0.000321021
-2.27988e-08
3.91721e-61
-2.88774e-62
-1.99509e-59
-0.000895175
0.000823143
-2.37343e-12
2.19824e-12
0
-1.71471e-65
-3.74986e-18
2.80916e-61
-1.37655e-64
4.08569e-67
-9.00304e-62
-6.02985e-49
1.95687e-43
-1.2012e-36
-2.52215e-66
-2.41824e-70
0.000332692
0.000359086
5.38773e-66
4.34098e-69
3.87358e-66
1.30749e-08
1.07186e-11
3.68448e-66
0
-4.75823e-08
2.62718e-08
1.09609e-34
-1.89285e-36
3.75942e-67
7.35666e-17
-6.15996e-17
1.0364e-66
-6.03269e-49
-1.84734e-47
3.70526e-50
6.439e-47
4.23403e-38
3.66855e-65
-7.36779e-64
-5.47498e-70
-0.000785771
0.000590954
-0.000680952
9.59506e-64
1.74745e-69
1.87351e-45
-2.27512e-60
2.63327e-61
5.50647e-48
-1.23623e-67
4.47504e-69
-2.38291e-52
1.75293e-52
-1.5119e-31
1.21324e-35
1.64627e-62
-2.81166e-63
5.01726e-63
-1.66329e-64
4.25403e-63
-1.68479e-64
-1.43106e-14
7.58255e-15
-1.03671e-52
4.52666e-53
1.4039e-67
-9.94788e-05
0.000784236
-0.000823143
-5.90155e-69
6.49048e-69
0.000897739
-0.000796812
7.67165e-68
-2.74133e-53
4.13983e-54
4.60298e-43
-4.29398e-44
-2.27003e-68
-1.0727e-58
9.23659e-62
-1.39819e-65
4.30311e-52
-3.62641e-52
8.98167e-70
4.64237e-68
-2.75486e-54
7.79158e-56
2.10071e-63
-1.03724e-64
0.000447654
-0.000538848
2.81314e-17
8.26634e-69
-3.04369e-68
-5.53987e-56
1.96646e-59
7.94739e-54
-1.38087e-54
1.20123e-36
-4.57329e-38
6.93881e-63
1.82208e-17
0.000899941
-2.16489e-69
3.06078e-69
1.50676e-67
7.25302e-33
-3.32951e-33
0
-1.78216e-64
1.57796e-67
1.22881e-68
-1.70255e-59
1.08286e-62
0.000811814
-2.42308e-62
2.81265e-40
8.3851e-46
-1.92901e-16
8.65263e-16
-1.19306e-30
3.08413e-64
-2.0528e-65
-4.75074e-66
1.36281e-41
-1.66629e-42
1.51027e-71
-6.74641e-68
1.50708e-70
1.0204e-71
5.02557e-52
-1.18787e-51
5.40343e-71
2.73756e-55
7.80545e-54
2.25206e-66
-2.65862e-65
-1.08726e-66
2.11196e-68
-1.89287e-36
1.60388e-40
-9.81541e-40
-1.50397e-61
2.3683e-62
-6.77036e-63
-1.50911e-65
3.56384e-69
6.86543e-72
8.10322e-56
0.000824151
-3.86044e-69
1.19304e-56
1.37364e-68
2.31254e-58
1.72515e-69
2.22999e-71
0.000680512
3.31299e-23
-3.3115e-23
0.0007705
-0.000220069
0.00192069
-0.00102296
2.16036e-70
4.97747e-65
-1.7244e-69
-3.98214e-60
0.0004915
2.44029e-69
4.29374e-44
-1.91246e-44
-5.20625e-46
-2.0686e-47
2.13636e-48
-7.13926e-64
5.40454e-55
9.52403e-42
8.57897e-66
-2.75309e-67
-3.58383e-20
4.57362e-38
-1.51253e-40
4.79564e-47
-1.26307e-47
2.44643e-17
-2.63073e-17
5.76112e-66
-2.20223e-67
6.80197e-65
1.31252e-70
-8.24152e-49
1.32192e-49
9.94293e-42
4.65605e-15
6.36945e-16
-8.17967e-70
-2.16091e-72
2.98763e-72
-1.28773e-71
-2.12901e-35
4.86928e-38
3.29917e-67
-4.81303e-16
2.13916e-16
-8.06379e-66
1.94381e-70
-3.06083e-69
7.67234e-64
-6.61198e-67
-3.47846e-73
2.2962e-71
8.09086e-70
-1.01221e-68
6.41015e-71
1.72344e-73
0.00107195
-0.000624299
-1.86672e-68
1.772e-48
-2.26834e-72
1.06223e-72
2.00712e-74
2.12573e-67
-4.54927e-69
6.84349e-66
-1.61269e-66
-2.1977e-67
1.26738e-66
-5.57471e-68
0.000275141
-9.23676e-62
2.24844e-63
1.75802e-68
-1.54607e-73
-2.1949e-17
-5.33691e-72
-2.49331e-51
2.49407e-54
-6.48868e-73
6.52696e-73
0.00132836
-2.62262e-12
1.12301e-71
2.77341e-43
-5.66141e-35
-0.00109985
2.69421e-47
-4.33614e-48
2.61427e-71
3.38945e-72
-9.5815e-69
2.19482e-18
-1.01108e-20
4.00309e-75
1.54681e-73
1.7663e-74
8.28768e-71
3.63967e-73
-2.21109e-70
3.88492e-72
4.43676e-74
1.61248e-43
5.94027e-50
3.06951e-71
3.87928e-71
-3.47401e-66
2.12445e-51
-4.9849e-72
1.77528e-70
-4.57274e-40
2.6575e-29
-4.84113e-30
-1.24394e-41
-2.42458e-62
7.97471e-66
-0.00100598
-0.000189342
2.02566e-52
-2.93614e-72
2.04648e-73
2.42472e-72
6.65763e-75
4.21747e-77
0.00101089
5.07507e-73
2.44356e-67
-2.05206e-68
6.75164e-76
-2.89653e-51
3.52731e-49
4.57374e-72
-8.68229e-77
-2.97027e-73
4.70206e-73
1.63018e-16
-1.39699e-16
0
-1.51385e-40
1.42557e-43
0.000347124
-0.000885972
7.18619e-75
-4.77266e-45
1.01692e-68
-3.15694e-70
-3.76629e-64
6.92753e-66
-1.21089e-68
1.58717e-73
-1.59204e-73
-5.25966e-76
3.04493e-67
1.17543e-73
-1.77546e-70
1.41992e-73
-0.000823143
-5.97899e-66
4.53807e-76
0.000860465
-0.00051334
-3.18918e-70
4.56657e-50
2.75471e-74
-1.73123e-54
1.12508e-54
4.3356e-48
-1.63945e-49
-9.61821e-55
4.8757e-55
-9.89935e-70
1.25802e-71
-9.89431e-40
7.9392e-42
-0.000418428
-0.00071262
0.000492551
-3.67656e-55
1.22361e-55
-2.24103e-63
1.99925e-54
0.00102296
-0.000747815
-2.8604e-75
2.57504e-69
-8.65987e-71
-0.000680512
0.000581033
-7.62298e-56
1.06735e-57
8.38698e-78
3.37877e-77
-1.79399e-58
2.39093e-60
-3.72729e-23
3.15544e-18
-3.15545e-18
-1.44555e-24
-3.98949e-60
5.45568e-64
1.02945e-74
-6.87187e-11
0
2.2074e-79
7.78633e-75
7.65263e-76
-7.01775e-64
8.26141e-67
9.40275e-69
-2.06224e-70
1.24391e-41
-6.10304e-45
-1.1708e-71
1.94016e-73
-4.3069e-75
1.39778e-75
2.81284e-74
-1.94409e-76
5.79117e-77
-4.0463e-70
-1.48262e-76
2.60459e-27
4.97916e-27
-1.47e-25
-2.33979e-73
2.46533e-75
2.06997e-54
-6.29024e-54
3.29076e-76
-1.02513e-75
-0.000121666
9.80033e-76
1.99181e-74
4.97102e-33
-1.5216e-33
-3.18764e-72
5.20479e-46
8.196e-18
0.000236166
-2.02112e-67
-1.8852e-69
-2.88863e-51
-2.42467e-42
-3.11565e-48
-3.81176e-75
1.44898e-69
-7.67993e-71
4.97096e-77
3.41444e-52
-4.1081e-76
-8.62359e-79
-4.26401e-72
-4.83154e-30
-4.70202e-73
7.43419e-69
1.63929e-49
-1.03161e-49
-4.43957e-54
5.39468e-75
-4.17643e-77
1.02208e-18
-5.74631e-19
-2.59747e-78
-4.07969e-77
4.58175e-77
5.42969e-79
7.60562e-76
4.02423e-78
2.92011e-53
-4.90771e-52
7.68451e-72
-1.34281e-73
1.25131e-71
-3.19164e-73
1.17748e-51
-1.19841e-50
-5.36799e-73
4.94494e-75
-8.11324e-66
1.42919e-16
1.29789e-77
1.22207e-42
-5.43862e-45
5.98695e-66
-6.09955e-69
2.71279e-70
-7.88173e-72
2.93615e-79
1.22648e-71
-2.63813e-73
2.21476e-77
2.50641e-50
-3.71048e-50
-1.14757e-73
8.28985e-77
7.46116e-77
2.58845e-78
3.40677e-77
1.36449e-76
-5.47913e-17
1.36647e-76
-9.18584e-66
1.58265e-65
-1.59486e-75
2.00697e-80
0.000361144
-0.000779572
3.01004e-69
0.000708508
-0.000347363
-1.5057e-69
1.36484e-53
-4.02617e-75
1.44223e-75
8.70657e-77
5.12093e-81
3.24483e-72
-8.69973e-74
0.000747815
-0.00051165
-4.39602e-75
6.65891e-80
9.04382e-78
5.98158e-78
0.000195167
-4.77983e-45
9.24287e-48
1.63846e-12
0
-1.50505e-76
1.07759e-78
1.9839e-44
-8.49629e-49
-0.000288072
-4.86031e-38
-1.52147e-33
-4.86032e-38
2.66938e-50
-7.4702e-51
-1.61689e-73
-4.34495e-80
6.10261e-45
-1.15636e-49
-5.07746e-77
3.33346e-80
8.88597e-75
-1.51308e-76
6.45996e-80
-6.14711e-77
4.51994e-77
1.79514e-49
-1.27851e-22
1.27584e-20
1.40191e-72
-1.75152e-73
-1.71432e-78
8.23688e-80
-2.56159e-26
2.56117e-26
1.09498e-74
-2.27461e-76
-0.000645845
0.000357773
-3.25139e-77
3.13272e-77
-0.000581033
0.000459367
2.23338e-79
1.48167e-81
-5.18509e-79
-6.11714e-69
3.52461e-72
-1.11873e-75
-1.36707e-79
-2.68591e-80
-1.79905e-78
2.19903e-83
2.40691e-29
-2.40719e-29
1.43677e-51
-2.89012e-52
1.1986e-80
-7.69155e-29
-1.83818e-80
-6.76495e-78
3.96048e-72
-1.59873e-73
4.39846e-78
-5.80492e-80
1.60947e-79
0.000761894
-0.000402807
2.74328e-19
2.71196e-75
-5.84152e-77
-1.64345e-76
1.18638e-78
-5.78429e-80
3.08534e-82
3.28739e-79
-1.00858e-78
3.32718e-83
0.00051165
-0.000316483
-1.14173e-76
1.00188e-77
6.7314e-78
-1.11326e-79
8.41841e-84
-1.45889e-80
-7.43933e-78
1.71144e-78
4.10002e-53
-4.21808e-58
5.20659e-46
-1.75001e-49
-0.000153294
-2.19699e-79
2.04225e-79
6.68721e-81
-3.09056e-26
-1.4546e-81
8.55607e-87
-4.64386e-82
4.54797e-87
-4.86065e-38
3.31125e-42
4.25576e-84
-5.91726e-79
-4.19518e-82
3.22207e-69
-3.4422e-72
1.55639e-74
-1.03311e-75
-1.42368e-83