/*--------------------------------*- C++ -*----------------------------------*\
  =========                 |
  \\      /  F ield         | OpenFOAM: The Open Source CFD Toolbox
   \\    /   O peration     | Website:  https://openfoam.org
    \\  /    A nd           | Version:  8
     \\/     M anipulation  |
\*---------------------------------------------------------------------------*/
FoamFile
{
    version     2.0;
    format      ascii;
    class       volScalarField;
    location    "0.1";
    object      alpha.water;
}
// * * * * * * * * * * * * * * * * * * * * * * * * * * * * * * * * * * * * * //

dimensions      [0 0 0 0 0 0 0];

internalField   nonuniform List<scalar> 
1924
(
0.000449864
0.00411595
2.71717e-07
0.000292602
0.000365378
1.20567e-07
1.37282e-05
1.05599e-05
2.93026e-06
1.37436e-06
9.64608e-11
8.71124e-10
6.65141e-10
2.65051e-12
1.33864e-20
4.19604e-30
1.22625e-11
7.82637e-12
0.000303656
5.2537e-12
1.16227e-07
6.71214e-25
2.9475e-13
1.42523e-12
1.608e-27
2.21988e-30
6.17094e-29
8.40756e-05
1.44261e-05
1
1.9366e-13
4.84057e-28
6.1589e-07
1.13453e-11
7.83738e-06
1.2173e-14
4.01724e-26
6.36157e-05
1
1.58462e-12
1.06348e-27
8.23699e-09
1.68878e-29
3.77734e-12
0.920576
1.39789e-09
0.735451
0.930862
0.000736422
2.28882e-05
1.7124e-12
1.29882e-09
8.07623e-24
6.85045e-12
1.92738e-11
3.54229e-05
0.109232
0.928388
0.448126
7.69414e-36
1.27874e-12
5.57385e-27
1.04901e-11
1
1.03309e-13
0.810025
1.59456e-40
3.84057e-16
2.03037e-06
3.6828e-11
1.1331e-10
2.1336e-36
1
1
1
8.52628e-12
0.589558
1
1
6.28805e-13
1.25e-11
1.47553e-30
1
5.52627e-08
3.30477e-06
9.61376e-19
0.0647363
3.47806e-19
0.000177676
1.08833e-09
4.81702e-36
8.995e-32
1.53052e-10
1.32802e-12
2.26987e-10
3.24502e-14
0.314926
2.85602e-05
2.49873e-34
1.88584e-11
6.70136e-08
1.15698e-09
2.01466e-32
3.87287e-33
6.05332e-14
0.999971
4.6346e-07
4.08298e-14
3.96876e-41
7.23231e-12
0.538132
1.35015e-08
1.27228e-05
1
1
1.17465e-07
2.36873e-07
8.68301e-38
1.32722e-23
1
6.64749e-08
0.77292
5.20218e-06
1.21259e-08
3.28726e-38
1.29357e-11
2.26608e-12
0.999999
8.83323e-09
1
0.560923
1.3326e-08
8.00317e-12
1
1.00387e-09
1.56639e-10
4.28567e-05
2.49534e-06
3.90122e-13
3.64409e-06
0.262264
1.29476e-33
0.963463
5.14791e-08
4.13612e-08
1
6.59282e-15
1.9854e-11
1.72623e-42
1.81479e-25
1
0.917432
5.77389e-12
2.69462e-10
9.29397e-08
7.702e-13
0.548701
5.02609e-06
0.0581145
1
1
7.26573e-12
1.58431e-10
0.918387
1
1.42294e-10
4.58373e-13
0.267356
0.999999
5.56309e-10
6.61036e-07
4.81232e-08
0.999712
1.1768e-34
0.015749
4.05394e-15
1
1.50144e-10
7.82973e-17
9.3809e-11
1.59511e-18
2.21887e-33
1
1.64674e-14
0.00142102
0.778427
1.45712e-12
1.02379e-20
0.999994
1
5.27252e-15
8.96143e-10
0.476246
1.02364e-12
3.52136e-16
0.998
3.04993e-23
6.55977e-16
1.13203e-16
6.65442e-15
2.32661e-07
0.235116
1.10406e-10
6.03398e-10
8.30548e-06
9.49885e-20
1.1024e-13
3.514e-12
1.93408e-11
1.97623e-11
0.998298
1.47799e-08
1.16598e-14
6.4879e-17
4.93764e-22
0.999996
2.1429e-47
3.80032e-15
9.75394e-15
0.999995
1.51636e-14
1
2.62105e-11
1.18469e-20
5.59676e-11
3.44096e-25
0.000139024
0.933391
7.2372e-19
8.91451e-16
5.58034e-11
8.68461e-37
8.35589e-18
2.40732e-11
3.75937e-26
1
1.05462e-14
1.88872e-15
2.92198e-12
1
0
1.05434e-18
-1.08398e-12
7.97891e-13
0.966064
2.66446e-11
1.52906e-15
0.00818826
1
0.998048
0.892565
1
2.0606e-19
1.12802e-10
0.999952
7.36385e-21
5.39674e-35
1.6582e-20
1.27947e-15
1.15749e-16
4.96318e-16
1.74752e-13
5.05106e-37
0.999998
4.91587e-31
1
4.76653e-08
0.999897
3.16799e-12
0.808003
1.76074e-16
1
1.33348e-08
9.81753e-23
1.2732e-37
1.20835e-11
1.39634e-12
2.95164e-26
1.55203e-10
8.43705e-17
1.37334e-11
1
4.01641e-33
2.06115e-21
-3.42057e-10
1
0.22779
1
9.08873e-18
1.07714e-19
2.78303e-15
1
1.95376e-27
2.87796e-15
3.7426e-07
1
1.39865e-19
6.84673e-12
0.999956
1.71317e-22
1
6.5571e-11
-4.38442e-12
-4.34989e-49
1.72144e-12
3.76891e-25
4.66246e-08
-2.91566e-12
1.13099e-21
1
2.07478e-11
2.3682e-25
5.38031e-22
6.90529e-26
0.999666
7.61976e-09
3.02336e-17
2.7669e-17
8.55842e-16
4.00677e-18
1
1.5733e-17
1.60631e-11
1
3.62252e-28
1.28991e-11
9.39644e-21
4.83501e-24
0.00556254
1.45735e-05
9.55084e-18
5.11006e-42
1.62524e-25
7.2841e-13
0.999998
2.00668e-28
3.82571e-38
8.18969e-18
4.70314e-24
8.31118e-13
0.179221
1
8.07987e-29
1.80288e-12
5.23056e-21
-8.07774e-38
1.98952e-09
6.01377e-38
2.707e-27
2.10645e-26
4.472e-32
0.964891
1
7.956e-16
1.56705e-10
0.962842
0.00467278
5.65186e-17
1.15501e-22
2.84075e-16
9.95948e-30
1.54017e-22
-2.6089e-13
3.16571e-38
1.4121e-30
5.68259e-14
1.34361e-27
1.83147e-18
1.81631e-24
2.02009e-18
-1.17248e-12
2.53384e-19
4.90225e-25
1.25666e-34
2.40939e-36
3.55748e-09
3.48777e-22
7.11804e-22
1.84224e-31
2.80363e-38
5.54948e-41
0.998828
8.41441e-22
2.50558e-20
1.55468e-18
-4.67566e-13
1
9.15735e-39
2.21718e-33
6.60692e-15
1
2.08845e-27
7.80281e-23
2.44645e-43
1.2831e-20
9.07475e-12
1.5682e-36
6.70646e-31
0.0379696
0
1
0.999919
3.71126e-13
1.24391e-12
0.0340057
1.24869e-38
5.70185e-15
9.35928e-45
1.09426e-23
1.26378e-37
7.36107e-31
1.80326e-27
7.39891e-17
7.66843e-16
2.66909e-26
0
1.22424e-11
2.3708e-23
1.85967e-19
0.0601244
1.59341e-23
1.34781e-19
9.57754e-12
2.77968e-11
5.45469e-36
-3.50585e-13
0.997206
1
1.21397e-29
3.28454e-39
1.57117e-40
1.25054e-11
4.33136e-38
5.48157e-28
-2.08959e-22
2.87069e-41
-3.9972e-13
2.96277e-08
8.37365e-17
6.42131e-33
1.33839e-19
1.73978e-39
1.49796e-21
1
1.87812e-39
1
2.82339e-32
0.999979
6.09373e-24
7.9274e-40
2.65274e-23
4.36982e-29
1.23134e-22
0.000264182
1.62691e-37
4.98893e-25
-1.24027e-13
6.73811e-24
7.09924e-29
3.27605e-41
0.0616832
3.79317e-32
4.18347e-11
1.65447e-28
6.44761e-14
6.33137e-41
2.17085e-45
1.31765e-26
2.28929e-18
1
-6.06296e-38
1.23001e-29
1
-3.75204e-14
1.75514e-20
0.31999
1
2.98712e-17
1.03151e-40
-8.37071e-40
2.41189e-33
1.6465e-23
2.5662e-44
1.72219e-47
1.29283e-31
1.96429e-38
7.87683e-44
2.51122e-34
5.76066e-43
0.678246
2.66214e-09
-3.64304e-45
2.27495e-30
1.67794e-05
4.50706e-22
6.44035e-12
3.80684e-42
1.6689e-43
-2.05826e-46
1
8.83269e-22
9.13164e-25
1.38356e-20
1.84763e-35
5.44162e-12
-1.79174e-52
1.18538e-27
0
5.22338e-31
-2.18355e-13
0.979731
1.24513e-11
7.60806e-45
7.24696e-24
2.76948e-42
1.70427e-43
5.75031e-34
3.04804e-26
1.88345e-20
6.61591e-42
1.1034e-30
2.9877e-25
0.000162365
-1.7051e-13
5.80614e-25
2.16591e-27
0.999999
4.15025e-14
1.0741e-41
1.74711e-27
5.52555e-29
2.12535e-17
5.56918e-32
5.01237e-19
7.97512e-15
6.62029e-48
-7.03442e-25
7.75864e-22
2.0017e-11
3.57684e-40
2.37742e-33
1
3.94056e-15
0.99922
-1.51476e-14
4.32685e-47
1
1
2.17682e-42
0.000500117
-2.46558e-46
-8.32501e-47
-1.38802e-38
6.33529e-32
-5.54046e-43
4.38073e-20
2.69817e-15
3.46473e-16
1
1
5.54314e-39
2.83056e-30
4.76058e-13
1.62541e-47
1.03559e-21
9.60346e-19
0.00017395
9.70272e-06
1
8.48276e-33
-5.56977e-15
-2.43399e-45
-6.08071e-42
5.59639e-49
0.999937
5.15074e-45
9.72425e-19
6.41204e-13
6.40369e-22
1.67492e-22
6.17469e-37
7.73801e-44
1.24359e-21
4.05819e-48
3.72323e-17
1.95808e-15
4.09079e-30
3.44997e-27
5.5029e-12
1
1.61722e-43
1.03861e-32
0.0597584
1.37539e-16
3.5442e-16
6.33188e-22
2.7831e-46
0.998641
2.40661e-50
6.90703e-31
1.96432e-19
1.26706e-31
3.41338e-29
1
2.21251e-33
2.70095e-18
1.1671e-28
0.0855969
3.61805e-19
3.39347e-29
2.11639e-43
2.73884e-26
4.19923e-19
0.0364742
1.44003e-35
1.19577e-43
2.79896e-26
7.90268e-16
7.93861e-18
1
-5.53766e-14
2.66879e-12
1.63021e-06
-2.85218e-42
3.48488e-27
1
1.68019e-16
4.53582e-45
5.50107e-30
2.47497e-21
6.13783e-43
-3.84253e-44
0.902566
3.46184e-30
1.67195e-33
1.65419e-21
-1.69112e-43
1
-3.63831e-50
-3.62108e-14
1.24273e-50
-5.55151e-49
5.31402e-35
6.05095e-46
-9.47318e-51
1.99227e-30
3.82781e-40
5.12482e-35
9.33529e-51
6.16013e-23
2.17137e-32
8.34158e-51
3.46267e-06
2.18851e-27
1.00124e-17
2.67602e-52
6.67805e-33
0.383664
5.59466e-47
1.32853e-22
1.09477e-20
1.09648e-16
0.999987
-1.81566e-15
1.64909e-51
1
5.65287e-46
9.00727e-47
4.04421e-34
3.09441e-35
1.3831e-38
0.000413784
1.99796e-10
3.69702e-05
-4.89893e-33
1.2314e-12
8.55768e-25
-1.00248e-39
2.22702e-17
3.18963e-20
5.75184e-33
3.53906e-34
2.32584e-45
1.12941e-50
6.40276e-45
-1.7771e-29
7.17241e-48
1
3.0382e-22
8.15177e-18
1
3.64581e-30
-5.40114e-06
3.88434e-48
1.1291e-34
4.80558e-33
1.22322e-21
0.986839
4.22267e-37
-9.45572e-43
2.55968e-12
1.54463e-30
-3.98095e-45
2.82763e-13
3.44876e-18
-4.72817e-46
0
1.6362e-46
1.56418e-22
1.48235e-35
3.58719e-34
6.31218e-19
6.84394e-54
1
6.97548e-63
1.62563e-31
-2.66102e-52
1.54236e-33
-1.19475e-31
2.25807e-11
0.99945
7.21999e-47
0.000444325
5.16171e-19
1.2232e-44
2.68786e-07
5.93146e-10
1.09677e-19
1.44953e-16
-7.79544e-15
1.36114e-54
3.57367e-24
1
1.08424e-41
9.08982e-53
6.57032e-49
3.45809e-49
0
1.23974e-46
1.64706e-31
1.00138e-19
-5.14467e-59
2.02524e-12
2.10614e-17
9.54444e-09
1
1.92187e-37
2.42381e-20
4.24467e-36
-4.48742e-15
-3.59039e-46
-3.59219e-52
2.9898e-24
1
1
7.9324e-29
1
1.36991e-20
1
4.33324e-48
1
5.06646e-55
-1.26358e-44
1.74165e-12
4.28493e-47
4.14824e-23
-3.88602e-50
9.07699e-41
2.35609e-19
1.93423e-49
6.85481e-47
1.79444e-48
1
1.20007e-54
3.59358e-14
6.90131e-36
1.34035e-37
-5.13974e-49
1.29024e-20
-1.37843e-53
2.77264e-32
0.0960483
7.34253e-32
2.00422e-13
1.31288e-14
0.999999
-1.9518e-40
-3.10746e-47
-3.10253e-34
1
1.53301e-24
6.52041e-36
1.2057e-35
1.29317e-55
-3.75449e-46
3.44881e-12
2.74699e-33
4.15661e-10
-2.7794e-48
3.46374e-36
3.8001e-11
1.5508e-18
-4.5434e-51
1
0.000555914
1.28361e-36
1
2.67584e-48
0
9.57745e-40
0.999946
1.28005e-22
1
7.17368e-20
3.66426e-36
7.99023e-22
1.14889e-48
2.22436e-20
1.17672e-50
1.06421e-25
1.85687e-33
5.48147e-30
5.82958e-38
2.48467e-23
7.51967e-51
2.76554e-23
6.19057e-44
8.07722e-53
-1.18886e-55
3.16139e-23
7.78249e-46
1.94674e-12
6.2149e-38
-1.87341e-52
-8.90693e-48
-2.66327e-51
0.428973
4.35869e-58
-7.15918e-16
0.000509557
7.94391e-06
1.59186e-21
1.76864e-50
-9.2129e-50
0.0408357
4.31585e-37
2.62762e-52
-3.61322e-49
8.29558e-50
1.31677e-37
1.37096e-28
-3.13584e-63
3.43143e-22
0.000598899
5.93801e-50
-1.13107e-54
3.19669e-35
8.98459e-40
2.50079e-21
0.994743
4.2009e-54
1.96476e-36
-5.78975e-55
1
1.71978e-32
1.27436e-55
2.32646e-24
-5.55327e-49
1.74962e-23
5.0915e-26
-3.80015e-16
5.96813e-38
6.81468e-31
-5.24525e-32
3.45047e-43
1
1.56054e-12
4.65542e-29
1.61112e-05
-1.40468e-49
1
6.58575e-38
2.27832e-50
1
1.16042e-57
-6.74988e-53
9.33136e-58
7.41871e-13
1.17667e-58
3.27532e-52
5.92799e-48
1.99225e-12
4.5611e-12
-1.04071e-45
0
3.45065e-36
5.48708e-33
5.29936e-50
1.47055e-33
-1.14002e-42
9.51733e-25
0.99999
4.7555e-40
2.15144e-22
-8.00064e-52
-8.51494e-53
6.35316e-39
2.0935e-23
-2.93227e-55
1.4642e-39
-6.77555e-54
1
4.51948e-23
4.94588e-10
5.88431e-25
-1.10526e-56
2.32691e-26
-8.40278e-51
4.94775e-42
0.117309
0.999582
9.91966e-48
-3.11538e-50
1
1.56615e-18
3.29102e-26
2.87882e-12
1.41675e-31
6.27073e-27
3.38065e-53
6.21798e-47
1.88972e-51
-3.14144e-51
2.17891e-39
-7.99536e-56
2.59932e-14
9.97773e-60
1.89017e-39
7.44041e-55
-6.93296e-58
0.00108572
4.97459e-10
0
6.14465e-11
1.51332e-22
-2.66992e-53
-5.0071e-51
-1.3044e-56
4.28276e-25
5.16578e-50
4.72995e-37
-1.16008e-50
1
5.74869e-40
1.74279e-55
1.16122e-11
2.82295e-34
3.36632e-08
1.94042e-26
5.8578e-52
1
2.83188e-15
3.63135e-40
2.88482e-19
1.922e-24
1.19218e-58
-1.09295e-46
-4.45117e-53
-3.47652e-54
1.4058e-26
1.52433e-12
3.27796e-42
0.504831
-4.72487e-53
-1.26497e-43
1
9.60986e-59
-7.83369e-57
6.29785e-54
1.70143e-13
1.9013e-51
-4.2658e-58
1.20369e-35
1.12063e-45
-3.82549e-53
-1.39492e-67
0
1
1
3.97001e-41
1.19932e-24
3.40233e-60
2.8795e-15
1.63819e-50
2.17061e-41
6.35406e-06
1.36891e-40
9.38199e-57
1.83343e-58
8.1866e-28
-3.61671e-52
1.81442e-26
1.05173e-38
4.26424e-62
5.16424e-42
2.4355e-15
1.21422e-49
4.23582e-13
7.92282e-30
1
-4.81984e-53
1.45119e-29
4.53338e-53
-9.61107e-55
1.23542e-30
2.61352e-24
-6.3467e-56
7.24002e-56
6.5917e-42
-8.44867e-54
1.84914e-37
2.71747e-54
-3.52738e-36
6.17286e-05
1.0537e-12
2.13397e-12
-6.97217e-58
1.64869e-44
-1.36101e-59
1
1
1
1.08264e-37
1.4035e-18
2.17348e-55
1.58777e-25
4.29969e-28
3.18276e-49
2.79855e-13
1
-3.5231e-53
1.4808e-34
4.40072e-51
8.92314e-19
2.06933e-62
1.34803e-53
-1.86802e-55
5.36362e-15
-1.02922e-56
-1.61884e-55
-6.79929e-59
-1.31852e-53
-8.44412e-49
3.96537e-28
0
1.29471e-11
1.22042e-13
-2.48907e-54
-7.52689e-48
-6.11832e-61
4.85536e-43
-2.64375e-59
9.25861e-36
2.06246e-43
1
2.07046e-29
2.39196e-12
2.35604e-53
-9.32971e-56
1.56722e-14
1.44692e-27
2.48167e-53
5.106e-30
-1.97703e-58
4.52451e-44
-2.8631e-60
9.26905e-62
1.02709e-26
4.77943e-63
1.19322e-44
-9.43199e-55
1
-1.86106e-57
3.70199e-48
1.36118e-11
1.19963e-34
5.35615e-43
3.69177e-14
5.63292e-61
9.39505e-55
-1.27194e-62
4.11821e-53
2.08498e-60
0.999999
1
-1.66293e-56
-1.08947e-58
6.43554e-52
0.147147
8.13488e-64
1.29759e-29
4.52842e-45
-9.25598e-56
1.20962e-40
0.999958
-5.52895e-58
3.57575e-14
2.33367e-39
-3.98071e-58
1.78041e-58
-8.99674e-57
8.03404e-33
4.02621e-57
6.95161e-20
6.95161e-20
5.01142e-19
1.29428e-32
-6.95251e-56
-1.32697e-36
1.32229e-45
-4.10132e-58
-2.24267e-59
2.74688e-37
2.13446e-55
1.89581e-29
5.68057e-29
3.9046e-14
-2.24653e-60
1.78218e-46
0.999654
3.35717e-14
2.63741e-62
-4.68133e-72
6.09023e-54
1.31591e-46
7.42313e-45
-5.89461e-57
4.85851e-27
7.04059e-19
6.34575e-31
3.20023e-51
7.42815e-66
7.47613e-21
1.19418e-28
6.59501e-38
-1.33059e-58
0.107338
-1.64388e-58
-2.62379e-58
1
2.58027e-10
-1.64558e-61
1.11068e-14
4.65841e-55
1.23597e-61
1.50065e-53
8.29273e-40
2.96325e-31
-7.80619e-63
1
8.26745e-62
-1.60544e-61
2.45484e-22
4.83875e-08
-1.80377e-57
1.46806e-05
8.80076e-31
2.34594e-63
7.82583e-14
8.13163e-73
3.49251e-63
2.90169e-44
2.38968e-41
4.25031e-34
6.71737e-18
5.17557e-60
-2.56377e-60
1
1
1.20135e-58
2.72489e-66
7.14176e-40
1.58959e-56
2.28167e-42
-4.80704e-64
3.58226e-47
9.41876e-32
-1.55415e-59
-1.13488e-60
-1.08166e-60
1.0201e-12
1.02007e-47
-2.13822e-59
1
1
4.2736e-64
1
-1.91305e-59
1.10015e-48
2.82722e-38
-2.95137e-64
1.04113e-58
-1.33383e-61
7.76067e-47
2.62823e-65
4.69874e-51
-6.34886e-61
1
1.02774e-13
4.59144e-64
8.16201e-56
1.43911e-50
7.2208e-33
3.31387e-57
4.51185e-14
1
5.28421e-66
-7.97565e-59
1.00365e-29
3.82912e-06
8.30131e-07
-7.23769e-61
-9.97022e-60
-3.4172e-58
1
4.63743e-59
3.38778e-36
7.32727e-40
1.46786e-15
1.6441e-12
1.74599e-25
-1.20298e-61
-3.50251e-62
-1.49143e-38
4.18018e-66
5.75887e-65
4.88901e-66
8.12278e-47
3.10055e-67
5.22804e-49
8.75922e-57
9.43899e-62
-3.77527e-63
6.84407e-37
3.90224e-35
2.02495e-57
-7.94492e-62
1.39101e-64
1.65338e-49
1
-3.18909e-65
2.81013e-50
2.67402e-63
1.42752e-51
-1.14751e-76
1
5.88343e-24
1
1
8.16868e-67
2.114e-60
5.40714e-54
8.09854e-25
1
-1.53233e-60
1.88192e-40
3.76501e-43
1.10984e-58
7.07254e-49
-2.0033e-38
-1.96035e-63
1.19824e-21
3.77831e-34
9.13055e-42
3.9202e-14
-1.46935e-63
1.72866e-58
-4.04566e-62
1.87475e-44
1.21744e-37
6.3717e-11
-2.70696e-66
1.97878e-67
5.38683e-36
5.69769e-62
3.22461e-13
-3.62637e-62
3.57229e-59
-2.47473e-63
-2.85079e-62
3.98213e-65
0
2.57193e-70
1
-2.26013e-64
3.63416e-44
7.22846e-68
1.35919e-69
-3.88692e-65
-8.88907e-63
1
-1.69795e-63
-3.50762e-64
1
1.28728e-61
8.7485e-64
1.08169e-13
-9.14607e-68
1
4.06989e-48
5.64027e-68
0.999791
0.999993
5.07813e-09
-6.53411e-63
2.91181e-30
1
5.87188e-42
1.01878e-66
-1.14908e-64
1.59252e-16
1.29805e-69
-6.35455e-81
2.13284e-65
-3.44978e-62
-9.20831e-67
1
2.37582e-68
-4.77861e-40
8.97117e-44
1.61086e-67
4.08903e-62
2.52332e-45
-4.93519e-68
-9.1559e-64
2.80023e-40
1.85952e-26
3.06764e-36
2.30125e-62
0.997265
0.570062
1
3.09344e-46
1.175e-68
2.88569e-29
7.4651e-68
1.44291e-74
1
8.42475e-69
-1.19865e-64
6.80282e-70
1.65884e-45
1.93879e-11
1.55118e-06
2.61281e-67
1.23728e-69
1.28314e-13
2.80984e-08
7.30525e-07
3.10783e-41
1
5.91231e-69
1.64115e-43
-2.33154e-66
1.02739e-60
-6.04913e-65
-5.59531e-70
1.32663e-60
7.92578e-70
0.000368015
-8.19075e-67
1
1
-8.75887e-61
4.43557e-70
1
1.43193e-09
-2.56425e-66
7.75575e-44
-5.30488e-65
7.23227e-51
3.09151e-44
3.65059e-51
-3.70257e-66
2.52153e-41
1
1
1.22382e-51
7.12946e-51
1
-7.21305e-71
-5.93119e-67
1
2.24151e-52
0
1.51233e-55
-1.21705e-21
1.02529e-20
2.62063e-60
-1.27564e-63
4.80852e-08
6.20382e-75
2.73969e-70
1
1.05882e-12
-1.40626e-63
-1.83905e-66
1.07136e-37
-1.88884e-67
-4.50606e-65
1.2956e-70
-1.39403e-65
5.70168e-72
-1.63554e-66
1.47268e-22
-1.0512e-69
1.6733e-50
2.41329e-71
1
1.12497e-70
3.18243e-30
-3.26279e-68
2.86461e-42
1.60477e-14
5.38375e-33
1
-9.87283e-66
2.77881e-52
-2.14355e-38
-4.70361e-71
-4.81539e-67
9.74064e-74
1.37094e-47
-1.51046e-72
-6.80853e-68
1.15434e-12
3.86824e-30
1.18238e-63
2.06417e-45
1.25415e-72
1.21216e-15
-1.33781e-73
4.24643e-72
1.69227e-73
4.0663e-71
1.53621e-48
-1.42386e-69
-2.65697e-69
2.89088e-47
-2.16152e-69
5.56833e-62
1.29804e-13
7.86626e-72
-3.44066e-40
2.0028e-64
-4.3183e-68
1.63934e-73
-2.44857e-69
-6.95714e-68
4.04968e-46
-5.73143e-70
-7.9262e-66
5.95279e-73
2.1109e-73
1
-3.96044e-68
5.07989e-14
-6.55948e-68
3.99807e-62
-2.02783e-71
2.6275e-74
1
8.9187e-66
1
1.73385e-64
4.96868e-49
-9.64157e-71
1
2.68874e-71
3.20619e-73
1.56548e-13
-6.58738e-70
1
-2.46202e-71
6.15312e-74
1
7.35671e-46
2.54583e-38
1.74984e-08
-7.35253e-73
-2.52253e-39
5.58936e-45
1
1.22572e-35
1.82021e-52
1.25651e-46
-7.07549e-70
4.40239e-48
-2.77214e-73
-1.66613e-72
3.17594e-75
-8.0855e-73
-1.86608e-68
1.07717e-45
1.42446e-18
-1.01604e-69
-2.80342e-74
-5.14503e-71
9.16796e-27
-2.18261e-72
1
1.17968e-50
1.6442e-73
1
6.05915e-51
1.2336e-74
2.50019e-51
-8.7142e-75
1.0868e-68
6.04153e-52
-2.65345e-71
-5.38718e-76
1.64847e-54
-1.10955e-74
3.70919e-30
1.34284e-47
2.00532e-58
1.56576e-61
-6.56374e-71
1.69441e-24
-3.18956e-76
3.74965e-66
-1.09076e-69
-7.90419e-76
3.47697e-74
1
1.16253e-16
2.32496e-16
0
-4.98167e-73
-7.05886e-73
-3.09735e-76
2.54522e-75
-2.78937e-74
1
1.13658e-73
-1.26784e-75
-8.80193e-77
2.08852e-74
4.83573e-49
6.70716e-48
1
-1.4207e-66
5.14882e-76
6.52942e-77
1.08934e-44
6.36441e-23
-1.02531e-77
-3.19813e-78
0
-4.40607e-74
1.58312e-49
7.81038e-48
-2.82333e-74
-1.01804e-77
1.95591e-46
1.2708e-67
-6.42575e-72
-2.55356e-79
-2.29781e-68
1
1.53797e-73
1.77231e-73
2.11401e-77
1.11083e-45
2.47113e-19
1.41323e-65
-7.9236e-80
-2.45651e-78
1.48269e-58
9.97396e-26
-2.56665e-76
5.56833e-62
-4.9754e-79
3.20292e-46
1.48269e-58
1.43182e-34
-1.67697e-71
1.3889e-51
-5.34242e-41
-7.68087e-69
7.7668e-62
1
1
1
-1.01678e-38
-2.03859e-77
-2.45193e-81
-1.65057e-80
-2.01799e-77
-7.21703e-80
1
8.66622e-52
1.10455e-13
-5.19328e-83
3.74261e-61
1.04318e-69
-8.76382e-80
3.3407e-46
-5.16022e-82
1.48915e-75
-1.02629e-74
1.3228e-13
1.32288e-13
1.34575e-15
2.68192e-47
-1.81667e-73
6.05226e-21
-1.25037e-82
2.50199e-45
-1.62126e-72
5.50516e-73
2.49491e-78
5.86732e-78
1
1.4599e-58
-9.02847e-71
1.19902e-48
-6.08751e-81
9.4138e-76
4.23421e-48
1.19082e-57
-1.08433e-83
-4.09768e-82
1.97093e-72
-1.90338e-83
1.14612e-76
-9.9983e-77
1.44188e-65
7.2986e-46
2.79589e-74
3.10584e-24
-4.20749e-78
4.59511e-75
7.5558e-48
-3.25124e-85
1
-1.10072e-84
1.8467e-74
-1.86676e-86
1.59891e-17
-1.66605e-75
4.52482e-50
3.1744e-53
1.07971e-53
3.74368e-61
1
-6.20937e-75
4.70215e-56
-1.36136e-65
1.01554e-46
-5.73553e-87
-2.06811e-81
5.07249e-76
2.86365e-48
2.0912e-65
-1.11323e-81
2.30407e-51
-2.47122e-87
2.07161e-29
1
1
-1.06502e-88
2.33834e-51
3.50405e-50
-6.65272e-48
2.69225e-13
-1.37879e-84
-3.55801e-78
4.8598e-61
1.17074e-77
-3.40676e-86
1.34545e-56
-1.85373e-74
-3.66054e-73
-1.43733e-90
-1.74309e-91
-1.8019e-85
-1.19185e-78
1.63907e-19
3.10598e-24
-4.13072e-71
7.2999e-28
-7.11063e-84
-1.75161e-89
-6.98431e-94
2.13835e-50
-1.61906e-89
1.51885e-61
-5.82658e-82
1
1
1.08927e-69
-5.31508e-96
7.87762e-57
4.39938e-80
5.96124e-77
4.9483e-65
2.30374e-51
8.44695e-81
2.26886e-52
-4.25723e-77
1.76327e-59
4.66242e-56
-3.96435e-93
7.30035e-28
-1.87631e-85
1.57994e-14
-5.03096e-74
-5.8198e-88
4.18167e-34
-2.98199e-86
-2.10552e-77
-6.47193e-79
3.6144e-53
7.53957e-16
2.47992e-61
3.36368e-32
-3.75424e-89
5.51344e-81
-2.47036e-91
-1.01887e-98
-4.25261e-93
-3.44692e-80
-2.55886e-83
-9.55809e-82
1.08921e-69
1.56976e-53
2.53331e-65
-3.98028e-95
-2.32444e-97
3.18631e-55
8.81635e-60
3.36326e-32
3.95974e-81
3.95974e-81
5.74734e-75
2.23304e-82
4.76289e-38
-1.7517e-85
-5.12315e-101
0
6.54778e-62
3.4842e-58
-2.48142e-80
4.7634e-38
-3.9281e-102
-7.39504e-100
-2.53112e-95
6.02785e-64
-5.91603e-64
-9.66795e-84
1.18531e-77
7.0077e-54
-2.39128e-87
2.40546e-45
2.40538e-45
-3.4559e-91
6.30708e-14
4.76586e-63
2.74051e-64
4.04306e-66
-1.08505e-65
6.00516e-64
1
1
2.82363e-62
1
2.74581e-66
1
-2.301e-88
-4.05106e-90
4.27121e-85
-1.27268e-86
-5.78932e-85
-1.06511e-78
-7.61181e-94
-5.61841e-92
-7.9068e-76
-3.13499e-77
4.39575e-67
3.94234e-67
1.55537e-80
1.17592e-62
7.01745e-65
2.27062e-70
2.27008e-70
2.74752e-66
-1.56907e-107
-6.54378e-105
-2.70975e-102
-4.49245e-100
-7.54683e-96
-7.33719e-98
5.74895e-75
-8.79989e-65
1
2.0977e-62
2.27062e-70
4.39815e-67
1.18492e-53
1.18381e-53
1
2.32127e-05
1
2.83031e-58
6.58897e-53
6.84127e-25
1.13788e-12
4.64156e-52
3.01669e-58
0.00216115
0.999999
1
1
2.3493e-58
1
2.41345e-26
0.00877021
1
1.64682e-23
1
1.27763e-09
4.29745e-14
1
2.04661e-18
1.59021e-16
1
0.00243154
1
0.00168505
1
0.449676
1
1
1
3.89671e-14
2.97793e-13
2.58668e-13
1
8.08421e-15
1.22412e-26
8.23828e-17
9.55631e-08
9.4911e-08
1
1
1
0.00436985
0.999992
8.43805e-10
0.0225151
0.00638185
1.12602e-20
1
0.00168598
1
1
0.000431592
0.0173941
0.00119398
0.00121527
1
8.36962e-16
1.10257e-09
0.999968
0.000421721
1.78498e-13
1.97601e-07
3.49117e-12
1.04921e-05
3.0106e-15
7.92969e-17
1.28061e-14
1.67613e-06
1.35397e-10
6.24585e-12
2.64448e-05
1.99122e-11
3.30255e-07
8.1734e-20
1.2331e-11
3.10359e-07
7.46588e-18
2.04661e-18
1.60571e-14
0
1.22155e-14
9.55631e-08
1.02529e-20
1.66461e-10
4.33825e-19
9.47225e-14
0.00336955
2.25025e-06
0.00138023
8.90291e-20
0.000305367
0.000140067
-7.43807e-18
2.67245e-20
0.000145787
2.19478e-21
5.93135e-08
3.13116e-05
8.16623e-24
2.40735e-07
2.30085e-05
4.8221e-07
0.000335919
8.70002e-23
0.00252662
0.00728183
4.18293e-14
)
;

boundaryField
{
    patch0
    {
        type            zeroGradient;
    }
}


// ************************************************************************* //
