/*--------------------------------*- C++ -*----------------------------------*\
  =========                 |
  \\      /  F ield         | OpenFOAM: The Open Source CFD Toolbox
   \\    /   O peration     | Website:  https://openfoam.org
    \\  /    A nd           | Version:  8
     \\/     M anipulation  |
\*---------------------------------------------------------------------------*/
FoamFile
{
    version     2.0;
    format      ascii;
    class       volScalarField;
    location    "0.1";
    object      epsilon;
}
// * * * * * * * * * * * * * * * * * * * * * * * * * * * * * * * * * * * * * //

dimensions      [0 2 -3 0 0 0 0];

internalField   nonuniform List<scalar> 
1924
(
0.161266
0.164703
0.180146
0.181536
0.165995
0.182053
0.182775
0.183186
0.183301
0.179507
0.183701
0.183854
0.169156
0.184226
0.182345
0.182022
0.174889
0.1846
0.151758
0.184767
0.131776
0.180321
0.180206
0.185128
0.180235
0.180298
0.18045
0.174286
0.162005
0.181816
0.180363
0.180248
0.152914
0.178014
0.177204
0.180372
0.18039
0.167466
0.180126
0.179575
0.180398
0.146763
0.180297
0.179177
0.17175
0.138417
0.138484
0.181868
0.0794858
0.100445
0.173123
0.16196
0.180326
0.164838
0.103561
0.18107
0.140917
0.17741
0.171252
0.180306
0.179
0.181946
0.176285
0.17985
0.166346
0.183043
0.180953
0.180458
0.150444
0.171223
0.121329
0.181605
0.178991
0.182334
0.182308
0.118229
0.183975
0.182914
0.182769
0.17689
0.187787
0.180466
0.172795
0.137702
0.156671
0.180322
0.176831
0.182593
0.0880991
0.12886
0.181087
0.180338
0.128031
0.141865
0.148972
0.155498
0.18417
0.187202
0.180391
0.116254
0.176121
0.151354
0.18056
0.180368
0.153251
0.184221
0.169373
0.158607
0.180148
0.14122
0.18439
0.155947
0.170693
0.179797
0.183517
0.11898
0.178753
0.18177
0.179796
0.184093
0.148025
0.189555
0.113158
0.116664
0.181088
0.171651
0.133789
0.183075
0.153621
0.33618
0.184621
0.174151
0.529663
0.178492
0.164078
0.162721
0.169494
0.164059
0.185051
0.174501
0.181363
0.18147
0.976552
0.98384
0.180315
0.156241
0.166743
0.131798
0.180054
0.179663
0.161779
0.404035
0.150294
0.17739
0.181605
0.17582
0.19364
0.173756
0.184706
1.24342
0.181391
0.0933936
0.179663
0.21007
0.15916
0.169563
0.178288
0.261325
0.184296
0.162405
0.153641
0.18243
0.184512
0.180299
0.18248
0.178338
0.181552
0.30825
0.180194
0.181129
0.181159
0.181803
0.183154
0.179975
0.0751468
0.151619
0.15988
0.18139
0.184657
0.182251
0.171845
0.18305
0.185027
0.182074
0.180968
0.435716
0.181398
0.179793
0.180334
0.18058
0.48849
0.164991
0.174068
0.183339
0.16213
0.181272
0.18254
0.16852
0.148573
0.634191
0.227842
0.169246
0.184445
0.181469
0.181331
0.183779
0.179935
0.175848
0.18293
0.182961
0.177673
0.170904
0.177549
0.183875
0.183661
0.181276
0.185139
0.185939
0.181816
0.18091
0.515297
0.180723
0.180889
0.383011
0.181331
0.723926
0.184841
0.182955
0.179673
0.463954
0.181481
0.181159
0.185439
0.173468
0.824509
0.157564
0.183666
0.183482
0.183288
0.185226
0.152919
0.284171
0.18188
0.173799
0.184844
0.18366
0.180216
0.180907
0.179508
0.183153
0.180421
0.180956
0.180185
0.183677
0.180188
0.181079
0.144999
0.184113
0.110179
0.399053
0.180971
0.169089
0.136075
0.180817
0.180561
0.188316
0.183901
0.181178
0.1773
0.181042
0.40538
0.712536
0.180972
0.182027
0.151511
0.182671
0.185439
0.333106
0.182999
0.181086
0.181674
0.178816
0.181225
0.184431
0.105713
0.16574
0.183165
0.177243
0.183427
0.183865
0.599548
0.179609
0.185746
0.179834
0.183704
0.180723
0.155053
0.186241
0.180796
0.17741
0.16679
0.179566
0.181947
0.180109
0.185233
0.164406
0.181053
0.183145
0.18199
0.181413
0.179646
0.18094
0.181034
0.176292
0.180602
0.187851
0.181127
0.180704
0.183076
0.185429
0.181089
0.180653
0.180036
0.184067
0.181663
0.181051
0.180359
0.182231
0.182041
0.181805
0.186928
0.177412
0.180111
0.179128
0.182849
0.181424
0.590144
0.180834
0.179442
0.180585
0.180179
0.818663
0.486954
0.18453
0.170718
0.185474
0.0849775
0.182918
0.180626
0.145198
0.181081
0.183354
0.185038
0.180446
0.180158
0.182301
0.180063
0.180797
0.181897
0.18224
0.186332
0.181536
0.180511
0.181457
0.180188
0.29986
0.182928
0.182451
0.18009
0.180872
0.181107
0.184623
0.181015
0.181681
0.180975
0.186748
0.180559
0.180467
0.18017
0.182443
0.555748
0.179927
0.181048
0.180501
0.182366
0.66261
0.180126
0.180057
0.185917
0.181496
0.166795
0.182639
0.180164
0.126321
0.761519
0.180228
0.187695
0.180541
0.180498
0.180111
0.180896
0.179861
0.183021
0.182641
0.181963
0.179719
0.18883
0.18336
0.180099
0.183627
0.183785
0.180692
0.18814
0.176005
0.180056
0.184995
0.185548
0.172962
0.179943
0.180103
0.180251
0.188792
0.180123
0.179723
0.182267
0.1801
0.185489
0.136846
0.182583
0.180032
0.180882
0.180068
0.181621
0.15378
0.180582
1.51506
0.180908
0.181243
0.180918
0.180279
0.182126
0.179886
0.181706
0.185854
0.180057
0.180948
0.186744
0.182469
0.179652
0.180978
0.187358
0.179939
0.171722
0.17963
0.180687
0.180294
0.180323
0.181764
0.182677
0.180973
0.180007
0.179755
0.175041
0.187226
0.180517
0.186424
0.172714
0.182711
0.180581
0.181251
0.180704
0.182341
0.180069
0.180336
0.179893
0.179988
0.179995
0.181086
0.180021
0.18598
0.15016
0.180015
0.179694
0.183445
0.183724
0.18833
0.180743
0.1801
0.179987
0.177931
0.184171
0.182146
0.180714
0.179914
0.177961
0.17962
0.182764
0.179948
0.179773
0.185409
0.184346
0.188723
0.180108
0.181578
0.180127
0.180137
0.179879
0.180807
0.182546
0.181026
0.17957
0.182436
0.188976
0.185932
0.181644
0.180832
0.175855
0.179622
0.179932
0.181789
0.17953
0.182768
0.179718
0.180092
0.180834
0.180135
0.182185
0.180426
0.176885
0.17987
0.179774
0.180265
0.178363
0.182839
0.187204
0.179911
0.169386
0.178351
0.180317
0.186457
0.179905
0.179954
0.181234
0.179599
0.179874
0.18
0.179934
0.175775
0.174791
0.169069
0.179844
0.17951
0.138955
0.179959
0.180608
0.180279
0.188463
0.183736
0.171333
0.179727
0.187698
0.179928
0.179863
0.179971
0.177291
0.179986
0.180027
0.179767
0.184115
0.179853
0.179756
0.180592
0.182608
0.179977
0.167706
0.179252
0.183076
0.179335
0.188463
0.179057
0.179812
0.179544
0.369452
0.173032
0.177753
0.184609
0.179988
0.185338
0.180129
0.179454
0.139855
0.182707
0.181536
0.172458
0.179615
0.182488
0.180678
0.186565
0.180387
0.179215
0.179792
0.181732
0.179968
0.186457
0.179718
0.180296
0.181473
0.180845
0.155567
0.179295
0.185853
0.188796
0.18321
0.179721
0.182216
0.17229
0.17982
0.180406
0.180699
0.17982
0.180805
0.17979
0.18583
0.179417
0.179565
0.140732
0.179782
0.162402
0.179813
0.186359
0.179837
0.179844
0.179618
0.179742
0.179513
0.181948
0.179691
0.181021
0.179817
0.180459
0.179424
0.179847
0.175935
0.181519
0.179837
0.179855
0.179377
0.185139
0.179727
0.17976
0.180021
0.179236
0.173617
0.187153
0.17986
0.168675
0.179671
0.18062
0.179454
0.179574
0.179605
0.188168
0.161755
0.18687
0.18168
0.187479
0.182412
0.180948
0.177359
0.179762
0.183456
0.183035
0.180083
0.179961
0.179648
0.18199
0.179856
0.176056
0.184535
0.179492
0.180995
0.181449
0.183688
0.179664
0.179355
0.182188
0.179704
0.179789
0.179568
0.179578
0.187379
0.179297
0.179694
0.180297
0.170244
0.179699
0.179731
0.179653
0.185008
0.17947
0.179393
0.178352
0.179733
0.177315
0.179609
0.180561
0.17974
0.1793
0.18188
0.141463
0.175846
0.180279
0.187573
0.179627
0.180777
0.329342
0.518379
0.144522
0.180701
0.185722
0.179745
0.179603
0.179162
0.179548
0.179945
0.179592
0.179849
0.179715
0.18006
0.179266
0.173857
0.17975
0.187632
0.386056
0.183372
0.41222
0.179474
0.179606
0.179415
0.185931
0.179537
0.179423
0.182438
0.172714
0.178188
0.181309
0.151694
0.157073
0.169723
0.180138
0.15556
0.179751
0.180675
0.185232
0.179513
0.179534
0.17954
0.179465
0.179194
0.17958
0.180444
0.179573
0.17714
0.179632
0.180716
0.183382
0.179424
0.179527
0.179338
0.179623
0.179193
0.183551
0.181964
0.151755
0.184477
0.156221
0.180885
0.179601
0.182137
0.180253
0.179496
0.179178
0.182492
0.179636
0.179443
0.185421
0.183785
0.138729
0.179605
0.179225
0.171302
0.180591
0.179484
0.151188
0.186234
0.181245
0.168681
0.180302
0.179645
0.179421
0.158
0.184359
0.179858
0.380894
0.179255
0.179412
0.179925
0.177456
0.179466
0.179859
0.179103
0.181325
0.181432
0.178294
0.179731
0.184423
0.179404
0.179805
0.179649
0.1794
0.180551
0.184716
0.179271
0.179465
0.179409
0.179456
0.179772
0.17983
0.18289
0.768056
0.184007
0.354842
0.179489
0.179423
0.0802258
0.179015
0.179494
0.179374
0.180041
0.179073
0.182179
0.179647
0.179019
0.184686
0.180426
0.179527
0.178992
0.179274
0.1703
0.161621
0.179786
0.181175
0.17953
0.145871
0.179023
0.179541
0.173782
0.17941
0.179157
0.179354
0.182614
0.179108
0.178911
0.181631
0.179265
0.141934
0.184943
0.179089
0.316877
0.179509
0.150589
0.179128
0.179939
0.146515
0.179326
0.179363
0.179547
0.18444
0.179643
0.179719
0.179244
0.180069
0.389283
0.180607
0.182404
0.182742
0.183205
0.180174
0.178919
0.180606
0.179235
0.147984
0.179136
0.144258
0.179356
0.179334
0.181663
0.177317
0.179387
0.181368
0.179381
0.141165
0.18315
0.511623
0.156655
0.179554
0.178154
0.179346
0.179131
0.170975
0.150233
0.180491
0.179211
0.177536
0.180879
0.179234
0.180855
0.181094
0.182214
0.179404
0.179112
0.180064
0.179309
0.178477
0.17944
0.180698
0.179766
0.178516
0.179408
0.179557
0.179552
0.670771
0.179752
0.150085
0.339693
0.179428
0.179081
0.179446
0.178861
0.180263
0.178431
0.179283
0.71354
0.178531
0.179678
0.559984
0.178829
0.535975
0.179005
0.179863
0.174352
0.173923
0.178535
0.1835
0.1701
0.179458
0.180801
0.179169
0.179285
0.173653
0.179314
0.178528
0.157071
0.179278
0.180528
0.139932
0.179244
0.179303
0.179615
0.162346
0.180168
0.179308
0.178352
0.178507
0.179248
0.179545
0.17904
0.168337
0.151542
0.177818
0.180221
0.179463
0.174421
0.178475
0.177833
0.173038
0.177748
0.179657
0.179691
0.179086
0.179225
0.177185
0.177794
0.179777
0.177837
0.180676
0.180294
0.185161
0.182265
0.171718
0.178435
0.178033
0.179969
0.179341
0.182195
0.179762
0.179346
0.179322
0.177831
0.179119
0.18157
0.180338
0.181852
0.493576
0.175871
0.173626
0.179361
0.177812
0.179464
0.181064
0.180714
0.151737
0.17772
0.177755
0.179597
0.143833
0.156429
0.177774
0.185504
0.179997
0.178991
0.178251
0.180217
0.18296
0.179532
0.179875
0.179182
0.166891
0.179212
0.179207
0.179367
0.177726
0.180972
0.178725
0.178388
0.187299
0.184085
0.179162
0.18074
0.179457
0.17484
0.179226
0.177634
0.174787
0.140931
0.178868
0.171523
0.180302
0.179061
0.166342
0.169962
0.180044
0.17357
0.177673
0.174739
0.17923
0.179375
0.336071
0.179664
0.174688
0.178935
0.312352
0.179264
0.174624
0.144897
0.177927
0.17486
0.163362
0.17925
0.179959
0.179156
0.174554
0.179587
0.31925
0.305518
0.178335
0.179271
0.180222
0.186563
0.179372
0.177076
0.171588
0.174486
0.174973
0.33123
0.179114
0.1184
0.174851
0.179134
0.179513
0.179095
0.17792
0.179453
0.404316
0.363034
0.183451
0.178618
0.177614
0.181478
0.171535
0.179
0.179139
0.177452
0.17974
0.181461
0.179604
0.169389
0.179283
0.171485
0.298893
0.161743
0.179505
0.17939
0.180066
0.171424
0.171651
0.178874
0.177194
0.163056
0.156369
0.17133
0.179576
0.431753
0.143614
0.174777
0.17442
0.371535
0.178278
0.171235
0.30286
0.294843
0.179282
0.158184
0.179999
0.179429
0.180222
0.181114
0.178555
0.179317
0.17967
0.179171
0.179151
0.432587
0.528014
0.177553
0.314922
0.169882
0.179177
0.148527
0.171144
0.180886
0.171592
0.171759
0.173511
0.183082
0.179413
0.17919
0.15053
0.18233
0.179357
0.179296
0.171666
0.179794
0.171934
0.17908
0.158653
0.335559
0.174357
0.179044
0.178935
0.525816
0.15848
0.179026
0.140286
0.284685
0.178918
0.156274
0.17881
0.158329
0.174501
0.179227
0.180048
0.179189
0.158903
0.179236
0.158173
0.178219
0.17327
0.147519
0.178855
0.158031
0.180268
0.176922
0.179633
0.174672
0.161819
0.178963
0.171057
0.179653
0.620446
0.542373
0.179063
0.177488
0.157914
0.177123
0.179988
0.177683
0.171513
0.124227
0.52789
0.177904
0.174297
0.179067
0.180834
0.178214
0.178125
0.178259
0.15937
0.179151
0.146337
0.180432
0.178845
0.179149
0.156396
0.143521
0.179805
0.15782
0.179098
0.146183
0.647805
0.179086
0.146062
0.178222
0.145941
0.178731
0.32733
0.165862
0.166066
0.371733
0.179097
0.178789
0.145768
0.43237
0.169861
0.170976
0.172968
0.159423
0.145606
0.146619
0.180825
0.178868
0.155397
0.169767
0.159437
0.132933
0.178157
0.179658
0.178743
0.160012
0.173323
0.131929
0.17867
0.175003
0.33618
0.178172
0.485427
0.178957
0.178992
0.17906
0.177423
0.175253
0.14546
0.17811
0.163553
0.179067
0.170722
0.175016
0.178293
0.178998
0.157749
0.523904
0.178975
0.174241
0.156506
0.180022
0.175141
0.131968
0.178052
0.536957
0.147125
0.175013
0.184751
0.558354
0.121732
0.170899
0.178343
0.183167
0.159313
0.172347
0.178979
0.373062
0.171877
0.175094
0.172132
0.145334
0.179008
0.51197
0.171796
0.179504
0.147016
0.178602
0.179948
0.147163
0.179006
0.178993
0.176532
0.170151
0.176282
0.179769
0.48517
0.583494
0.176213
0.148433
0.159901
0.42942
0.17897
0.172033
0.393982
0.17799
0.157699
0.171863
0.180522
0.42088
0.757561
0.159004
0.175013
0.436793
0.375013
0.453747
0.15634
0.172357
0.147174
0.143467
0.178095
0.178982
0.178676
0.175074
0.178299
0.17889
0.558275
0.178921
0.434544
0.501255
0.179632
0.171872
0.160214
0.70257
0.1788
0.147017
0.177358
0.33513
0.158131
0.333291
0.178528
0.3375
0.17337
0.148206
0.331842
0.180023
0.375418
0.172011
0.17419
0.313909
0.330663
0.158991
0.329816
0.161252
0.366862
0.32955
0.145224
0.14916
0.14695
0.149469
0.582942
0.717225
0.329534
0.178906
0.169173
0.17792
0.178888
0.158925
0.170829
0.158209
0.178449
0.180196
0.178882
0.338943
0.158365
0.137388
0.175051
0.17262
0.178919
0.17219
0.1776
0.425477
0.152823
0.329717
0.180347
0.180296
0.178801
0.157668
0.171988
0.146513
0.159122
0.177844
0.837706
0.166719
0.174964
0.152307
0.325176
0.130593
0.147052
0.158161
0.171853
0.178368
0.340977
0.178827
0.178032
0.341391
0.17502
0.179912
0.423884
0.147375
0.178327
0.178233
0.330091
0.146367
0.178732
0.177292
0.34371
0.178795
0.145132
0.146611
0.177765
0.524497
0.178816
0.112603
0.178608
0.179699
0.178714
0.146333
0.165421
0.178913
0.151049
0.179555
0.143597
0.171956
0.615228
0.371295
0.330669
0.822471
0.174143
0.373594
0.178691
0.159229
0.146492
0.339199
0.42073
0.11568
0.178287
0.179227
0.180284
0.162853
0.169075
0.173546
0.346566
0.174983
0.143079
0.178206
0.178654
0.147103
0.178622
0.170766
0.155465
0.140455
0.330648
0.177684
0.178536
0.149381
0.177968
0.143751
0.435695
0.158052
0.305903
0.436442
0.17494
0.437407
0.177603
0.174821
0.437831
0.171918
0.333121
0.437739
0.178105
0.153382
0.349231
0.437254
0.436403
0.177226
0.180073
0.177515
0.171716
0.157658
0.178451
0.146284
0.179863
0.460793
0.388596
0.435106
0.174098
0.159329
0.174894
0.323512
0.178411
0.362608
0.332435
0.177892
0.174843
0.324689
0.346326
0.16595
0.133811
0.433379
0.323211
0.171871
0.41536
0.138417
0.17783
0.174768
0.170004
0.177156
0.433954
0.429714
0.147139
0.171818
0.425263
0.178082
0.331377
0.177344
0.145057
0.581035
0.382483
0.442075
0.334861
0.166538
0.130255
0.178781
0.171696
0.171763
0.1799
0.141677
0.174054
0.179621
0.177692
0.420501
0.179541
0.155077
0.170707
0.327201
0.178117
0.431262
0.179448
0.174912
0.490819
0.303005
0.173904
0.177029
0.174506
0.159633
0.450449
0.15957
0.533341
0.3408
0.311937
0.171539
0.178604
0.174556
0.173997
0.178888
0.159667
0.322599
0.170649
0.719435
0.61318
0.115845
0.414774
0.15942
0.327926
0.176589
0.17982
0.157668
0.171399
0.159499
0.157778
0.128936
0.17933
0.428779
0.406201
0.176449
0.4616
0.409316
0.178394
0.1472
0.147202
0.494631
0.173808
0.447223
0.336632
0.177855
0.1798
0.464454
0.329674
0.170589
0.460903
0.180039
0.15953
0.466772
0.17315
0.14607
0.1708
0.310914
0.157688
0.179148
0.370312
0.36209
0.177573
0.124968
0.147168
0.178043
0.170355
0.177751
0.147134
0.147196
0.462595
0.173832
0.174185
0.170469
0.178304
0.172724
0.143317
0.349995
0.485752
0.158426
0.179287
0.156092
0.140763
0.179523
0.344146
0.443236
0.17374
0.157281
0.346135
0.177215
0.332284
0.425937
0.146649
0.167094
0.169893
0.157716
0.403461
0.409209
0.145004
0.330292
0.342213
0.348145
0.152929
0.150758
0.16674
0.173169
0.15774
0.29868
0.439776
0.170921
0.143998
0.169793
0.321556
0.462827
0.170313
0.176603
0.147186
0.172272
0.144932
0.155843
0.176334
0.349751
0.412742
0.157647
0.286468
0.144964
0.41826
0.144059
0.423707
0.338467
0.43884
0.171716
0.42555
0.169612
0.333415
0.156768
0.145538
0.412687
0.348131
0.151989
0.334595
0.335981
0.415523
0.156603
0.401787
0.15581
0.406852
0.132525
0.168506
0.141936
0.413057
0.459821
0.320998
0.320577
0.340329
0.337658
0.429002
0.399805
0.150312
0.154958
0.165539
0.144907
0.411229
0.384794
0.325612
0.131941
0.153555
0.148664
0.144846
0.144741
0.164822
0.144461
0.408035
0.339983
0.142238
0.491949
0.323382
0.407885
0.317478
0.130309
0.138586
0.390741
0.227848
0.324992
0.31389
0.253456
0.387407
0.40695
0.339216
0.434073
0.337534
0.411405
0.419302
0.340661
0.402043
0.422769
0.333359
0.320772
0.439092
0.461841
0.425869
0.322092
0.448915
0.320363
0.376377
0.300432
0.305111
0.319409
0.383035
0.395943
0.339465
0.45575
0.128731
0.183469
0.141328
0.143724
0.142609
0.339671
0.38676
0.178971
0.153279
0.153069
0.306092
0.130643
0.179987
0.138639
0.131689
0.318358
0.298659
0.183962
0.163904
0.650287
0.299948
0.702507
0.17989
0.080156
0.179581
0.180276
0.803237
0.133686
0.1804
0.177452
0.259385
0.362787
0.68607
0.470038
0.783739
0.581938
0.60574
0.527547
0.179143
0.40837
0.156605
0.448967
0.275438
0.335133
0.448921
0.180813
0.179819
0.434175
0.577841
0.730009
0.167202
0.175475
0.602948
0.134792
0.184125
0.141213
0.0817786
0.292507
0.329728
0.316064
0.259061
0.320506
0.29556
0.313891
0.256742
0.665904
0.632399
0.17698
0.180928
0.111165
0.184507
0.544015
0.352258
0.459477
0.113476
0.110469
0.347702
0.180868
0.121731
0.125382
0.146264
0.319641
0.0977685
0.135489
0.0834591
0.308223
0.187317
0.100296
0.180776
0.287106
0.126999
0.186325
0.122157
0.360201
0.300225
0.161526
0.180619
0.185449
0.0823319
0.0710502
0.66208
0.180493
0.18705
0.0832183
0.18696
0.180342
0.356845
0.180226
0.18659
0.136862
0.179986
0.148192
0.114971
0.127008
0.973758
0.180065
0.365353
0.754847
0.185851
)
;

boundaryField
{
    patch0
    {
        type            epsilonWallFunction;
        value           nonuniform List<scalar> 
4010
(
0.161266
0.161266
0.164703
0.164703
0.180146
0.180146
0.181536
0.181536
0.165995
0.165995
0.182053
0.182053
0.182775
0.182775
0.183186
0.183186
0.183301
0.183301
0.179507
0.179507
0.183701
0.183701
0.183854
0.183854
0.169156
0.169156
0.184226
0.184226
0.182345
0.182345
0.182022
0.182022
0.174889
0.174889
0.1846
0.1846
0.151758
0.151758
0.184767
0.184767
0.131776
0.131776
0.180321
0.180321
0.180206
0.180206
0.185128
0.185128
0.180235
0.180235
0.180298
0.180298
0.18045
0.18045
0.174286
0.174286
0.162005
0.162005
0.181816
0.181816
0.180363
0.180363
0.180248
0.180248
0.152914
0.152914
0.178014
0.178014
0.177204
0.177204
0.180372
0.180372
0.18039
0.18039
0.167466
0.167466
0.180126
0.180126
0.179575
0.179575
0.180398
0.180398
0.146763
0.146763
0.180297
0.180297
0.179177
0.179177
0.17175
0.17175
0.138417
0.138417
0.138484
0.138484
0.181868
0.181868
0.0794858
0.0794858
0.100445
0.100445
0.173123
0.173123
0.16196
0.16196
0.180326
0.180326
0.164838
0.164838
0.103561
0.103561
0.18107
0.18107
0.140917
0.140917
0.17741
0.17741
0.171252
0.171252
0.180306
0.180306
0.179
0.179
0.181946
0.181946
0.176285
0.176285
0.17985
0.17985
0.166346
0.166346
0.183043
0.183043
0.180953
0.180953
0.180458
0.180458
0.150444
0.150444
0.171223
0.171223
0.121329
0.121329
0.181605
0.181605
0.178991
0.178991
0.182334
0.182334
0.182308
0.182308
0.118229
0.118229
0.183975
0.183975
0.182914
0.182914
0.182769
0.182769
0.17689
0.17689
0.187787
0.187787
0.180466
0.180466
0.172795
0.172795
0.137702
0.137702
0.156671
0.156671
0.180322
0.180322
0.176831
0.176831
0.182593
0.182593
0.0880991
0.0880991
0.12886
0.12886
0.181087
0.181087
0.180338
0.180338
0.128031
0.128031
0.141865
0.141865
0.148972
0.148972
0.155498
0.155498
0.18417
0.18417
0.187202
0.187202
0.180391
0.180391
0.116254
0.116254
0.176121
0.176121
0.151354
0.151354
0.18056
0.18056
0.180368
0.180368
0.153251
0.153251
0.184221
0.184221
0.169373
0.169373
0.158607
0.158607
0.180148
0.180148
0.14122
0.14122
0.18439
0.18439
0.155947
0.155947
0.170693
0.170693
0.179797
0.179797
0.183517
0.183517
0.11898
0.11898
0.178753
0.178753
0.18177
0.18177
0.179796
0.179796
0.184093
0.184093
0.148025
0.148025
0.189555
0.189555
0.113158
0.113158
0.116664
0.116664
0.181088
0.181088
0.171651
0.171651
0.133789
0.133789
0.183075
0.183075
0.153621
0.153621
0.33618
0.33618
0.184621
0.184621
0.174151
0.174151
0.529663
0.529663
0.178492
0.178492
0.164078
0.164078
0.162721
0.162721
0.169494
0.169494
0.164059
0.164059
0.185051
0.185051
0.174501
0.174501
0.181363
0.181363
0.18147
0.18147
0.976552
0.976552
0.976552
0.98384
0.98384
0.98384
0.180315
0.180315
0.156241
0.156241
0.166743
0.166743
0.131798
0.131798
0.180054
0.180054
0.179663
0.179663
0.161779
0.161779
0.404035
0.404035
0.404035
0.150294
0.150294
0.17739
0.17739
0.181605
0.181605
0.17582
0.17582
0.19364
0.19364
0.173756
0.173756
0.184706
0.184706
1.24342
1.24342
0.181391
0.181391
0.0933936
0.0933936
0.179663
0.179663
0.21007
0.21007
0.15916
0.15916
0.169563
0.169563
0.178288
0.178288
0.261325
0.261325
0.184296
0.184296
0.162405
0.162405
0.153641
0.153641
0.18243
0.18243
0.184512
0.184512
0.180299
0.180299
0.18248
0.18248
0.178338
0.178338
0.181552
0.181552
0.30825
0.30825
0.180194
0.180194
0.181129
0.181129
0.181159
0.181159
0.181803
0.181803
0.183154
0.183154
0.179975
0.179975
0.0751468
0.0751468
0.151619
0.151619
0.15988
0.15988
0.18139
0.18139
0.184657
0.184657
0.182251
0.182251
0.171845
0.171845
0.18305
0.18305
0.185027
0.185027
0.182074
0.182074
0.180968
0.180968
0.435716
0.435716
0.435716
0.181398
0.181398
0.179793
0.179793
0.180334
0.180334
0.18058
0.18058
0.48849
0.48849
0.164991
0.164991
0.174068
0.174068
0.183339
0.183339
0.16213
0.16213
0.181272
0.181272
0.18254
0.18254
0.16852
0.16852
0.148573
0.148573
0.634191
0.634191
0.634191
0.227842
0.227842
0.169246
0.169246
0.184445
0.184445
0.181469
0.181469
0.181331
0.181331
0.183779
0.183779
0.179935
0.179935
0.175848
0.175848
0.18293
0.18293
0.182961
0.182961
0.177673
0.177673
0.170904
0.170904
0.177549
0.177549
0.183875
0.183875
0.183661
0.183661
0.181276
0.181276
0.185139
0.185139
0.185939
0.185939
0.181816
0.181816
0.18091
0.18091
0.515297
0.515297
0.180723
0.180723
0.180889
0.180889
0.383011
0.383011
0.181331
0.181331
0.723926
0.723926
0.723926
0.184841
0.184841
0.182955
0.182955
0.179673
0.179673
0.463954
0.463954
0.463954
0.181481
0.181481
0.181159
0.181159
0.185439
0.185439
0.173468
0.173468
0.824509
0.824509
0.157564
0.157564
0.183666
0.183666
0.183482
0.183482
0.183288
0.183288
0.185226
0.185226
0.152919
0.152919
0.284171
0.284171
0.18188
0.18188
0.173799
0.173799
0.184844
0.184844
0.18366
0.18366
0.180216
0.180216
0.180907
0.180907
0.179508
0.179508
0.183153
0.183153
0.180421
0.180421
0.180956
0.180956
0.180185
0.180185
0.183677
0.183677
0.180188
0.180188
0.181079
0.181079
0.144999
0.144999
0.184113
0.184113
0.110179
0.110179
0.399053
0.399053
0.180971
0.180971
0.169089
0.169089
0.136075
0.136075
0.180817
0.180817
0.180561
0.180561
0.188316
0.188316
0.183901
0.183901
0.181178
0.181178
0.1773
0.1773
0.181042
0.181042
0.40538
0.40538
0.712536
0.712536
0.712536
0.180972
0.180972
0.182027
0.182027
0.151511
0.151511
0.182671
0.182671
0.185439
0.185439
0.333106
0.333106
0.182999
0.182999
0.181086
0.181086
0.181674
0.181674
0.178816
0.178816
0.181225
0.181225
0.184431
0.184431
0.105713
0.105713
0.16574
0.16574
0.183165
0.183165
0.177243
0.177243
0.183427
0.183427
0.183865
0.183865
0.599548
0.599548
0.599548
0.179609
0.179609
0.185746
0.185746
0.179834
0.179834
0.183704
0.183704
0.180723
0.180723
0.155053
0.155053
0.186241
0.186241
0.180796
0.180796
0.17741
0.17741
0.16679
0.16679
0.179566
0.179566
0.181947
0.181947
0.180109
0.180109
0.185233
0.185233
0.164406
0.164406
0.181053
0.181053
0.183145
0.183145
0.18199
0.18199
0.181413
0.181413
0.179646
0.179646
0.18094
0.18094
0.181034
0.181034
0.176292
0.176292
0.180602
0.180602
0.187851
0.187851
0.181127
0.181127
0.180704
0.180704
0.183076
0.183076
0.185429
0.185429
0.181089
0.181089
0.180653
0.180653
0.180036
0.180036
0.184067
0.184067
0.181663
0.181663
0.181051
0.181051
0.180359
0.180359
0.182231
0.182231
0.182041
0.182041
0.181805
0.181805
0.186928
0.186928
0.177412
0.177412
0.180111
0.180111
0.179128
0.179128
0.182849
0.182849
0.181424
0.181424
0.590144
0.590144
0.180834
0.180834
0.179442
0.179442
0.180585
0.180585
0.180179
0.180179
0.818663
0.818663
0.486954
0.486954
0.18453
0.18453
0.170718
0.170718
0.185474
0.185474
0.0849775
0.0849775
0.182918
0.182918
0.180626
0.180626
0.145198
0.145198
0.181081
0.181081
0.183354
0.183354
0.185038
0.185038
0.180446
0.180446
0.180158
0.180158
0.182301
0.182301
0.180063
0.180063
0.180797
0.180797
0.181897
0.181897
0.18224
0.18224
0.186332
0.186332
0.181536
0.181536
0.180511
0.180511
0.181457
0.181457
0.180188
0.180188
0.29986
0.29986
0.182928
0.182928
0.182451
0.182451
0.18009
0.18009
0.180872
0.180872
0.181107
0.181107
0.184623
0.184623
0.181015
0.181015
0.181681
0.181681
0.180975
0.180975
0.186748
0.186748
0.180559
0.180559
0.180467
0.180467
0.18017
0.18017
0.182443
0.182443
0.555748
0.555748
0.179927
0.179927
0.181048
0.181048
0.180501
0.180501
0.182366
0.182366
0.66261
0.66261
0.66261
0.180126
0.180126
0.180057
0.180057
0.185917
0.185917
0.181496
0.181496
0.166795
0.166795
0.182639
0.182639
0.180164
0.180164
0.126321
0.126321
0.761519
0.761519
0.761519
0.180228
0.180228
0.187695
0.187695
0.180541
0.180541
0.180498
0.180498
0.180111
0.180111
0.180896
0.180896
0.179861
0.179861
0.183021
0.183021
0.182641
0.182641
0.181963
0.181963
0.179719
0.179719
0.18883
0.18883
0.18336
0.18336
0.180099
0.180099
0.183627
0.183627
0.183785
0.183785
0.180692
0.180692
0.18814
0.18814
0.176005
0.176005
0.180056
0.180056
0.184995
0.184995
0.185548
0.185548
0.172962
0.172962
0.179943
0.179943
0.180103
0.180103
0.180251
0.180251
0.188792
0.188792
0.180123
0.180123
0.179723
0.179723
0.182267
0.182267
0.1801
0.1801
0.185489
0.185489
0.136846
0.136846
0.182583
0.182583
0.180032
0.180032
0.180882
0.180882
0.180068
0.180068
0.181621
0.181621
0.15378
0.15378
0.180582
0.180582
1.51506
1.51506
1.51506
0.180908
0.180908
0.181243
0.181243
0.180918
0.180918
0.180279
0.180279
0.182126
0.182126
0.179886
0.179886
0.181706
0.181706
0.185854
0.185854
0.180057
0.180057
0.180948
0.180948
0.186744
0.186744
0.182469
0.182469
0.179652
0.179652
0.180978
0.180978
0.187358
0.187358
0.179939
0.179939
0.171722
0.171722
0.17963
0.17963
0.180687
0.180687
0.180294
0.180294
0.180323
0.180323
0.181764
0.181764
0.182677
0.182677
0.180973
0.180973
0.180007
0.180007
0.179755
0.179755
0.175041
0.175041
0.187226
0.187226
0.180517
0.180517
0.186424
0.186424
0.172714
0.172714
0.182711
0.182711
0.180581
0.180581
0.181251
0.181251
0.180704
0.180704
0.182341
0.182341
0.180069
0.180069
0.180336
0.180336
0.179893
0.179893
0.179988
0.179988
0.179995
0.179995
0.181086
0.181086
0.180021
0.180021
0.18598
0.18598
0.15016
0.15016
0.180015
0.180015
0.179694
0.179694
0.183445
0.183445
0.183724
0.183724
0.18833
0.18833
0.180743
0.180743
0.1801
0.1801
0.179987
0.179987
0.177931
0.177931
0.184171
0.184171
0.182146
0.182146
0.180714
0.180714
0.179914
0.179914
0.177961
0.177961
0.17962
0.17962
0.182764
0.182764
0.179948
0.179948
0.179773
0.179773
0.185409
0.185409
0.184346
0.184346
0.188723
0.188723
0.180108
0.180108
0.181578
0.181578
0.180127
0.180127
0.180137
0.180137
0.179879
0.179879
0.180807
0.180807
0.182546
0.182546
0.181026
0.181026
0.17957
0.17957
0.182436
0.182436
0.188976
0.188976
0.185932
0.185932
0.181644
0.181644
0.180832
0.180832
0.175855
0.175855
0.179622
0.179622
0.179932
0.179932
0.181789
0.181789
0.17953
0.17953
0.182768
0.182768
0.179718
0.179718
0.180092
0.180092
0.180834
0.180834
0.180135
0.180135
0.182185
0.182185
0.180426
0.180426
0.176885
0.176885
0.17987
0.17987
0.179774
0.179774
0.180265
0.180265
0.178363
0.178363
0.182839
0.182839
0.187204
0.187204
0.179911
0.179911
0.169386
0.169386
0.178351
0.178351
0.180317
0.180317
0.186457
0.186457
0.179905
0.179905
0.179954
0.179954
0.181234
0.181234
0.179599
0.179599
0.179874
0.179874
0.18
0.18
0.179934
0.179934
0.175775
0.175775
0.174791
0.174791
0.169069
0.169069
0.179844
0.179844
0.17951
0.17951
0.138955
0.138955
0.179959
0.179959
0.180608
0.180608
0.180279
0.180279
0.188463
0.188463
0.183736
0.183736
0.171333
0.171333
0.179727
0.179727
0.187698
0.187698
0.179928
0.179928
0.179863
0.179863
0.179971
0.179971
0.177291
0.177291
0.179986
0.179986
0.180027
0.180027
0.179767
0.179767
0.184115
0.184115
0.179853
0.179853
0.179756
0.179756
0.180592
0.180592
0.182608
0.182608
0.179977
0.179977
0.167706
0.167706
0.179252
0.179252
0.183076
0.183076
0.179335
0.179335
0.188463
0.188463
0.179057
0.179057
0.179812
0.179812
0.179544
0.179544
0.369452
0.369452
0.173032
0.173032
0.177753
0.177753
0.184609
0.184609
0.179988
0.179988
0.185338
0.185338
0.180129
0.180129
0.179454
0.179454
0.139855
0.139855
0.182707
0.182707
0.181536
0.181536
0.172458
0.172458
0.179615
0.179615
0.182488
0.182488
0.180678
0.180678
0.186565
0.186565
0.180387
0.180387
0.179215
0.179215
0.179792
0.179792
0.181732
0.181732
0.179968
0.179968
0.186457
0.186457
0.179718
0.179718
0.180296
0.180296
0.181473
0.181473
0.180845
0.180845
0.155567
0.155567
0.179295
0.179295
0.185853
0.185853
0.188796
0.188796
0.18321
0.18321
0.179721
0.179721
0.182216
0.182216
0.17229
0.17229
0.17982
0.17982
0.180406
0.180406
0.180699
0.180699
0.17982
0.17982
0.180805
0.180805
0.17979
0.17979
0.18583
0.18583
0.179417
0.179417
0.179565
0.179565
0.140732
0.140732
0.179782
0.179782
0.162402
0.162402
0.179813
0.179813
0.186359
0.186359
0.179837
0.179837
0.179844
0.179844
0.179618
0.179618
0.179742
0.179742
0.179513
0.179513
0.181948
0.181948
0.179691
0.179691
0.181021
0.181021
0.179817
0.179817
0.180459
0.180459
0.179424
0.179424
0.179847
0.179847
0.175935
0.175935
0.181519
0.181519
0.179837
0.179837
0.179855
0.179855
0.179377
0.179377
0.185139
0.185139
0.179727
0.179727
0.17976
0.17976
0.180021
0.180021
0.179236
0.179236
0.173617
0.173617
0.187153
0.187153
0.17986
0.17986
0.168675
0.168675
0.179671
0.179671
0.18062
0.18062
0.179454
0.179454
0.179574
0.179574
0.179605
0.179605
0.188168
0.188168
0.161755
0.161755
0.18687
0.18687
0.18168