/*--------------------------------*- C++ -*----------------------------------*\
  =========                 |
  \\      /  F ield         | OpenFOAM: The Open Source CFD Toolbox
   \\    /   O peration     | Website:  https://openfoam.org
    \\  /    A nd           | Version:  8
     \\/     M anipulation  |
\*---------------------------------------------------------------------------*/
FoamFile
{
    version     2.0;
    format      ascii;
    class       volScalarField;
    location    "0.1";
    object      k;
}
// * * * * * * * * * * * * * * * * * * * * * * * * * * * * * * * * * * * * * //

dimensions      [0 2 -2 0 0 0 0];

internalField   nonuniform List<scalar> 
1924
(
0.0737519
0.0748372
0.0793961
0.0798207
0.0752038
0.0799627
0.0801847
0.0803034
0.0803406
0.0792319
0.0804608
0.080506
0.0758938
0.0806198
0.0800608
0.0799643
0.0777035
0.0807319
0.0707915
0.0807821
0.0637796
0.0794569
0.0794083
0.0808882
0.0794306
0.0794501
0.0794963
0.077751
0.0738771
0.0799008
0.0794518
0.0794347
0.0711247
0.078695
0.0786006
0.0794671
0.0794782
0.0755489
0.0793826
0.0791942
0.0794805
0.0687048
0.0794499
0.0790806
0.0769882
0.0664231
0.06672
0.0799493
0.0455307
0.0529864
0.0772549
0.0736066
0.0794583
0.0747867
0.0545864
0.0797186
0.0673936
0.0786594
0.0768536
0.0794523
0.0790371
0.0799421
0.07819
0.0792984
0.0752074
0.0802902
0.079646
0.0794961
0.0701917
0.0766553
0.060766
0.0798398
0.0790381
0.080058
0.0800496
0.059634
0.0805575
0.0802349
0.0802072
0.0783976
0.0816635
0.079501
0.0772658
0.0658678
0.0722652
0.079456
0.0785008
0.0801355
0.0485613
0.0631613
0.0796862
0.0794625
0.0628797
0.0672746
0.0696206
0.0718913
0.0806135
0.0814947
0.0794779
0.0589885
0.0781294
0.0703031
0.0795288
0.0794714
0.0709045
0.080633
0.0760041
0.0726217
0.0794044
0.0670933
0.0806791
0.0718607
0.0766072
0.0793183
0.0804231
0.05965
0.0789375
0.0798887
0.0792976
0.0805929
0.0695496
0.043141
0.0574544
0.0591368
0.079686
0.0767063
0.0647614
0.0802844
0.071056
0.0600833
0.0807486
0.0774856
0.0385946
0.0789445
0.074319
0.0738964
0.0761262
0.0743731
0.0808644
0.0777629
0.0798089
0.0797998
0.0499877
0.0501993
0.0794119
0.0721989
0.0751751
0.0641527
0.0793762
0.0792574
0.073938
0.0451011
0.0700699
0.0784914
0.0798108
0.0780107
0.0436171
0.07743
0.0807738
0.0686273
0.079785
0.0509077
0.0792014
0.046401
0.0731044
0.0760427
0.0787835
0.0441909
0.0806531
0.0738033
0.07134
0.0800674
0.0807204
0.0794503
0.0801281
0.0788088
0.0798247
0.042549
0.0794153
0.0796646
0.0797007
0.0798986
0.0803091
0.0793166
0.044088
0.0708856
0.0730748
0.0797767
0.0807613
0.0800413
0.0767794
0.08026
0.0808697
0.0799609
0.0796302
0.0474329
0.0797811
0.0792666
0.079437
0.0795178
0.0558508
0.0749727
0.077453
0.0803538
0.0739627
0.0797394
0.080113
0.0757606
0.0695222
0.0361694
0.0488825
0.0759472
0.0806834
0.0797916
0.0797608
0.0804991
0.0793402
0.0780278
0.0802346
0.08025
0.078596
0.0767156
0.0785462
0.0805149
0.0804529
0.0797448
0.0809014
0.0811448
0.0799013
0.0796253
0.0478253
0.0795774
0.079615
0.0451227
0.0797611
0.0396534
0.0807986
0.0802467
0.0792146
0.0494779
0.0798024
0.0797078
0.0809748
0.0772946
0.0654849
0.0723401
0.0804579
0.0804127
0.0803493
0.0809334
0.0713206
0.0510878
0.0799236
0.077368
0.0808181
0.0804499
0.0794252
0.0796339
0.0791733
0.080307
0.0794608
0.0796228
0.0794157
0.080468
0.0794164
0.079675
0.0682209
0.0805994
0.0567868
0.0490832
0.0796487
0.0761293
0.0657404
0.079607
0.0795286
0.0818102
0.0805285
0.0797151
0.0784641
0.0796674
0.0541749
0.052542
0.0796521
0.0799689
0.0705767
0.0801637
0.0809886
0.0558327
0.0802618
0.0796873
0.0798504
0.0789868
0.079729
0.0806762
0.0550178
0.0750914
0.0803038
0.0784639
0.0803921
0.0805096
0.0570218
0.0791913
0.0810633
0.0793096
0.0804707
0.0795789
0.0714513
0.0812083
0.0796007
0.0786471
0.0752132
0.079228
0.0799453
0.0793921
0.0809337
0.074422
0.0796632
0.080305
0.0799531
0.0797775
0.0792402
0.0796419
0.0796402
0.0782615
0.0795423
0.081705
0.0796999
0.079573
0.0802914
0.0809848
0.0796855
0.0795561
0.0793702
0.0805773
0.0798556
0.0796765
0.079468
0.0800289
0.0799732
0.0798877
0.0814355
0.078609
0.0793928
0.079056
0.0802095
0.0797852
0.050065
0.0796098
0.0791906
0.0795371
0.0794136
0.0625565
0.0580297
0.0807045
0.0764158
0.0810043
0.0475492
0.0802366
0.0795494
0.0686253
0.0796854
0.0803578
0.0808538
0.0794942
0.0794072
0.0800445
0.0793783
0.0796
0.0799298
0.0800331
0.0812332
0.079819
0.0795147
0.0797952
0.0794166
0.0417661
0.080232
0.0800917
0.0793865
0.0796208
0.0796903
0.0807511
0.0796665
0.0798644
0.0796531
0.0813545
0.0795204
0.0795005
0.0794111
0.0800921
0.05823
0.0793369
0.0796765
0.0795106
0.0800715
0.0334831
0.0793976
0.0793762
0.0811241
0.0798066
0.0754013
0.0801541
0.0793834
0.0621886
0.0439254
0.0794288
0.0816267
0.0795221
0.0795108
0.0793931
0.0796298
0.0793171
0.0802663
0.0801536
0.0799489
0.0792749
0.0819611
0.0803588
0.0793892
0.0804529
0.0804839
0.079569
0.0817549
0.0780687
0.0793762
0.0808399
0.0810278
0.077207
0.0793418
0.0793909
0.0794355
0.0819649
0.079397
0.0792756
0.0800411
0.0793901
0.0809845
0.0655748
0.080137
0.0793688
0.0796261
0.0793802
0.0798477
0.071423
0.0795343
0.0587403
0.0796333
0.0797327
0.0796375
0.0794439
0.0799946
0.0793247
0.0798733
0.0811022
0.0793766
0.0796463
0.0813507
0.0800955
0.0792539
0.0796518
0.0815552
0.0793405
0.0767295
0.0792473
0.0795531
0.0794485
0.079457
0.079889
0.0801652
0.079683
0.0793615
0.0792853
0.0778466
0.0814897
0.0795161
0.0812822
0.0771293
0.080173
0.0795339
0.0797335
0.079572
0.080063
0.0793807
0.0794606
0.0793267
0.0793556
0.079358
0.0796846
0.079366
0.0811542
0.0699225
0.0793642
0.0792669
0.0804006
0.0804651
0.0818093
0.0795817
0.0793901
0.0793556
0.0787427
0.0805962
0.08
0.0795757
0.0793331
0.0786808
0.0792452
0.080182
0.0793437
0.0792906
0.0809591
0.0806657
0.0819251
0.0793926
0.0798348
0.0793983
0.0794011
0.0793226
0.0796038
0.0801252
0.0796662
0.0792293
0.080085
0.0820134
0.0811114
0.0798543
0.0796111
0.0781009
0.0792342
0.0793387
0.0798963
0.0792171
0.0801894
0.079274
0.079387
0.0796037
0.0794004
0.0800156
0.0794885
0.0783569
0.07932
0.0792909
0.0794341
0.0788503
0.0802157
0.0814818
0.0793327
0.0761254
0.0788436
0.079455
0.0812801
0.079331
0.0793461
0.0797288
0.0792381
0.0793216
0.0793591
0.0793337
0.078067
0.0778042
0.0760245
0.0793122
0.0792109
0.0663735
0.0793475
0.079544
0.0794436
0.0818711
0.0804868
0.076723
0.0792767
0.0816256
0.079338
0.079318
0.0793512
0.0785459
0.0793557
0.0793664
0.0792543
0.0805784
0.0793148
0.0792857
0.0795369
0.0801437
0.079353
0.0756181
0.0791246
0.0802728
0.079158
0.0818472
0.079087
0.0793027
0.0792215
0.051212
0.0772439
0.0786702
0.080723
0.0793562
0.0809669
0.0793987
0.079194
0.0669115
0.0801642
0.0798205
0.0770496
0.079243
0.080105
0.0795647
0.0813153
0.0794766
0.0791218
0.0792966
0.0798767
0.0793491
0.0812945
0.0792742
0.0794487
0.079803
0.0796115
0.071897
0.0791294
0.0810869
0.081944
0.0803304
0.0792752
0.0800244
0.0770211
0.0793017
0.0794814
0.079571
0.0793049
0.0796005
0.0792964
0.0811126
0.079183
0.079228
0.0672079
0.0792938
0.0740592
0.0793034
0.0812347
0.0793107
0.0793128
0.0792439
0.0792818
0.079213
0.0799399
0.0792662
0.079665
0.0793045
0.0794987
0.079185
0.0793138
0.0781419
0.0798163
0.0793082
0.0793164
0.0791708
0.0809002
0.0792771
0.0792865
0.0793657
0.0791224
0.0774364
0.0814666
0.0793179
0.0759025
0.0792602
0.0795451
0.0791943
0.0792307
0.0792403
0.0817688
0.0736363
0.0814075
0.0798607
0.0815609
0.0800837
0.0796436
0.0785516
0.0792868
0.0803837
0.0802598
0.079385
0.0793482
0.0792533
0.079956
0.0793164
0.0781404
0.0807002
0.0792019
0.0796578
0.0797943
0.0804704
0.0792583
0.0791643
0.0800099
0.0792695
0.0793106
0.0792292
0.0792322
0.0815184
0.0791468
0.0792673
0.0794255
0.0763946
0.079269
0.0792787
0.079255
0.0808385
0.0791994
0.0791758
0.0788546
0.0792794
0.0785242
0.0792417
0.0795292
0.0792816
0.0791473
0.0799191
0.0674157
0.0781237
0.0794432
0.0816027
0.0792452
0.0795924
0.0438193
0.0379523
0.0684143
0.07957
0.0810475
0.079283
0.0792391
0.0790878
0.0792231
0.0793434
0.0792366
0.0793144
0.0792739
0.0793782
0.0791371
0.0774939
0.0792844
0.0815917
0.048217
0.080368
0.0518925
0.0792006
0.0792394
0.0791826
0.0811086
0.0792198
0.0791858
0.0800912
0.0771223
0.0787915
0.0797534
0.0706516
0.0723622
0.0762788
0.0794013
0.0718737
0.0792848
0.0795617
0.0808975
0.0792127
0.079218
0.0792209
0.079198
0.0791124
0.0792332
0.0794926
0.0792308
0.0785004
0.079249
0.0795641
0.0803611
0.0791854
0.0792171
0.0791567
0.0792462
0.0791152
0.0804308
0.0799478
0.0704688
0.0806955
0.0720918
0.0796247
0.0792395
0.0799941
0.0794258
0.0792067
0.0791102
0.0800989
0.0792502
0.0791914
0.0809491
0.0804795
0.0666667
0.0792407
0.0791244
0.0766412
0.0795377
0.0792041
0.0704891
0.0811949
0.0797313
0.0758954
0.07945
0.0792528
0.0791844
0.0726699
0.0806468
0.0793092
0.0486266
0.0791336
0.0791805
0.0793375
0.0785836
0.0791987
0.0793165
0.0790874
0.0797579
0.0797857
0.0788379
0.0792791
0.0806652
0.0791794
0.0793015
0.0792542
0.0791774
0.0795249
0.0807162
0.0791384
0.0791983
0.0791811
0.0791957
0.0793243
0.0793091
0.0802102
0.042718
0.0805553
0.0490418
0.0792056
0.0791858
0.0458609
0.0790602
0.0792072
0.0791706
0.0793722
0.0790779
0.0800126
0.0792535
0.0790598
0.0807601
0.0794875
0.0792171
0.0790533
0.0791395
0.0764133
0.0738337
0.0792958
0.0797099
0.0792184
0.0688427
0.0790633
0.0792216
0.0774695
0.0791817
0.0791025
0.0791638
0.080127
0.0790886
0.079029
0.0798483
0.0791368
0.0675809
0.0807832
0.0790834
0.0471828
0.0792118
0.0702959
0.0790947
0.0793417
0.0690545
0.0791567
0.0791674
0.0792233
0.0806881
0.0792525
0.0792754
0.0791304
0.0793548
0.0507116
0.079541
0.0800723
0.0801716
0.0803066
0.0794117
0.0790313
0.0795416
0.0791272
0.069539
0.0790971
0.0683305
0.0791656
0.0791583
0.0798532
0.0785415
0.0791748
0.079766
0.079173
0.0673285
0.0802893
0.0327785
0.0722251
0.0792256
0.0787958
0.0791626
0.0790956
0.0767362
0.0702895
0.0795072
0.0791207
0.0786055
0.0796142
0.0791272
0.0795784
0.0796888
0.0800228
0.0791801
0.0790898
0.0793789
0.0791511
0.0788955
0.079191
0.0795623
0.0792894
0.0789075
0.0791813
0.0792263
0.0792358
0.0490437
0.0792814
0.0701764
0.0486264
0.0791873
0.0790805
0.0791928
0.0790124
0.0794386
0.0788821
0.0791432
0.0471738
0.078912
0.0792632
0.0422393
0.0790038
0.038735
0.0790566
0.0793185
0.0776663
0.0775348
0.078913
0.0804051
0.0763512
0.0791964
0.0795985
0.079108
0.0791442
0.0774287
0.0790849
0.0789109
0.0725152
0.079142
0.0795183
0.0669318
0.0791319
0.0791497
0.0792442
0.0738271
0.0794102
0.0791511
0.0788581
0.0789046
0.0791328
0.0792229
0.0790683
0.0757892
0.0705773
0.078695
0.0794263
0.0791981
0.0776781
0.0788948
0.0786998
0.0773944
0.0786738
0.0792565
0.0792669
0.0790824
0.0791257
0.078501
0.0786879
0.0792926
0.0787008
0.079561
0.0794481
0.0809002
0.0800289
0.0768184
0.0788826
0.0787591
0.0793502
0.0791611
0.0800066
0.0792777
0.0791628
0.0791553
0.078699
0.0790927
0.0798251
0.0794607
0.0799084
0.0423099
0.0780476
0.0773936
0.0791671
0.0786932
0.0791984
0.0797022
0.0795664
0.0707719
0.0786658
0.0786817
0.0792385
0.0681934
0.0721488
0.0786814
0.0809986
0.0793468
0.0790535
0.0788273
0.0794252
0.0802441
0.0792188
0.0793219
0.079113
0.0754223
0.0791223
0.0791206
0.0791691
0.0786669
0.0796481
0.0789712
0.0788683
0.0815417
0.0805808
0.0791067
0.0795798
0.079196
0.0777907
0.0791265
0.0786395
0.0777744
0.0672238
0.0790153
0.0767375
0.0794505
0.0790755
0.0752542
0.0763069
0.0793728
0.0774023
0.0786505
0.0777596
0.0791277
0.0791715
0.0482497
0.0792577
0.0777439
0.0790366
0.0464507
0.0791381
0.0777242
0.068434
0.0787275
0.0777967
0.0743127
0.0791337
0.079347
0.0791054
0.0777026
0.0792346
0.0471309
0.0457569
0.0788523
0.0791402
0.0794266
0.0813288
0.0791704
0.0784679
0.0768047
0.0776814
0.0778317
0.0483109
0.0790924
0.0598473
0.0777951
0.0790988
0.0792126
0.0790865
0.0787248
0.0791946
0.0305255
0.0284612
0.0803923
0.078939
0.0786327
0.0797961
0.0767884
0.0790568
0.0791002
0.0785834
0.0792805
0.079789
0.0792274
0.0760214
0.0791436
0.0767728
0.0451578
0.0738068
0.0792093
0.0791754
0.0793797
0.0767539
0.076824
0.0790182
0.0785067
0.0742251
0.0721263
0.0767252
0.0792305
0.0343023
0.0681192
0.0777723
0.077661
0.0524904
0.0788351
0.0766957
0.0454791
0.0417567
0.0791431
0.0727566
0.0793593
0.0791862
0.0794264
0.0796893
0.0789193
0.0791534
0.0792508
0.0791098
0.0791039
0.0358758
0.0665541
0.0786139
0.0444741
0.076281
0.0791117
0.0697415
0.0766674
0.079622
0.0768054
0.0768582
0.0773836
0.0802812
0.0791819
0.0791154
0.0702622
0.0800694
0.079165
0.0791463
0.0768295
0.0792968
0.0769105
0.0790825
0.0728385
0.0481848
0.0776416
0.0790714
0.0790372
0.0656068
0.0727838
0.0790657
0.0670191
0.0436042
0.0790293
0.072166
0.0789987
0.072736
0.0776867
0.0791257
0.0793744
0.0791152
0.0729168
0.0791289
0.0726866
0.078817
0.0773159
0.0694172
0.0790104
0.0726413
0.0794394
0.0784206
0.0792478
0.0776671
0.0738718
0.079043
0.0766405
0.0792433
0.0407735
0.0372991
0.0790771
0.0785944
0.072604
0.0784914
0.0793563
0.078652
0.0767817
0.0618114
0.0658413
0.0787144
0.0776233
0.0790786
0.0796033
0.0788155
0.0787886
0.0788291
0.0730611
0.0791025
0.0689894
0.0794878
0.0790082
0.0791026
0.0721323
0.0680869
0.0793004
0.0725739
0.0790876
0.0689397
0.0441931
0.0790842
0.0689002
0.0788186
0.0688612
0.0789736
0.0478556
0.0750483
0.0750904
0.0576079
0.0790873
0.0789911
0.0688057
0.0358731
0.0762478
0.0766152
0.0772152
0.0730808
0.068753
0.0690794
0.0796019
0.079017
0.0718537
0.0762447
0.073085
0.0647135
0.0787984
0.0792555
0.0789785
0.0732627
0.0773247
0.0644422
0.0789552
0.0778406
0.0482381
0.0788037
0.0623446
0.0790448
0.0790517
0.0790756
0.0785745
0.0779176
0.0687054
0.0787848
0.0743708
0.0790772
0.0765362
0.0778443
0.0788393
0.0790576
0.072551
0.0413253
0.0790505
0.077606
0.0722253
0.0793663
0.077883
0.064431
0.0787674
0.0420146
0.069239
0.0778429
0.080792
0.0431178
0.0609603
0.0765915
0.0788493
0.0803166
0.0730442
0.0770387
0.0790506
0.0455296
0.0768942
0.077869
0.0769722
0.0686641
0.0790606
0.040683
0.0768695
0.0792012
0.0692084
0.0789347
0.0793442
0.0692555
0.07906
0.0790559
0.0783007
0.0763498
0.0782241
0.0792897
0.0393683
0.0445984
0.0782174
0.0696559
0.0732291
0.0357141
0.0790484
0.0769426
0.050324
0.0787483
0.0725347
0.0768894
0.0795131
0.0478184
0.0533588
0.0729479
0.0778425
0.0581184
0.030673
0.034959
0.0721118
0.0770285
0.0692564
0.0680671
0.0787795
0.0790486
0.0789581
0.0778631
0.078841
0.0790236
0.0424069
0.0790343
0.0364634
0.0401113
0.0792474
0.0768914
0.0733176
0.0499241
0.0789967
0.0692074
0.0785547
0.0486756
0.0726697
0.0484935
0.0789123
0.0483606
0.0773252
0.069522
0.0483496
0.0793659
0.0525546
0.0769359
0.0775902
0.0465733
0.0482316
0.0729452
0.0481458
0.0736227
0.0473139
0.0481174
0.0686281
0.0697218
0.0691885
0.0699912
0.053304
0.0507935
0.0481145
0.0790297
0.0760598
0.0787272
0.079024
0.0729241
0.0765699
0.0726983
0.0788885
0.0794186
0.0790218
0.0490497
0.0727488
0.0660822
0.0778559
0.0771085
0.0790336
0.0769764
0.078579
0.0354979
0.0710543
0.0481313
0.0794615
0.079443
0.0789968
0.0725245
0.0769286
0.0690427
0.072986
0.0787044
0.0563516
0.0753062
0.0778274
0.070837
0.0476708
0.0638817
0.069221
0.0726824
0.0768854
0.0788641
0.0492515
0.0790057
0.0787604
0.0492917
0.0778469
0.0793328
0.0569757
0.0693244
0.0788465
0.0788209
0.0481671
0.0690004
0.0789762
0.0785347
0.0495169
0.0789955
0.0685981
0.0690804
0.0786804
0.0413288
0.0790023
0.057947
0.0789375
0.0792685
0.0789707
0.0689882
0.0748873
0.0790275
0.0704269
0.0792241
0.0680991
0.0769191
0.0461067
0.0521338
0.0482358
0.0557364
0.0775758
0.0523485
0.0789638
0.0730195
0.0690202
0.0485208
0.0352337
0.0587584
0.0788396
0.0791195
0.0794407
0.0740938
0.0760406
0.0773991
0.0497935
0.0778356
0.0679389
0.0788151
0.0789522
0.0692371
0.0789427
0.0765504
0.0718329
0.0670484
0.0482209
0.078656
0.0789157
0.0699069
0.0787412
0.0680932
0.0365047
0.0726471
0.0457672
0.036547
0.0778226
0.0366019
0.0786316
0.0777833
0.0366263
0.0769072
0.0484758
0.0366214
0.0787842
0.0711925
0.0500489
0.0365942
0.0365466
0.0785147
0.0793815
0.0786048
0.0768424
0.072521
0.0788899
0.0689716
0.0793046
0.0347749
0.0309279
0.0364736
0.0775621
0.0730506
0.0778085
0.0475253
0.0788775
0.0513546
0.0484246
0.078718
0.0777932
0.0476476
0.0497579
0.0750665
0.0649026
0.036376
0.0474943
0.0768929
0.034932
0.0664506
0.0786992
0.0777699
0.076332
0.0784934
0.036406
0.0361636
0.0692486
0.076877
0.0359082
0.0787746
0.0482918
0.0785518
0.0685734
0.0442353
0.0334396
0.0368842
0.0486464
0.0752476
0.0637609
0.0789873
0.0768393
0.07686
0.079328
0.0675196
0.0775486
0.0792442
0.0786565
0.0356347
0.0792189
0.0717382
0.0765321
0.0476426
0.0787846
0.0362561
0.0791913
0.0778319
0.0395503
0.0454567
0.0775113
0.0784544
0.0776888
0.0731451
0.0373464
0.0731257
0.0418663
0.0486708
0.0464381
0.0767903
0.0789328
0.0777014
0.0775313
0.0790179
0.0731556
0.0474335
0.0765142
0.0510345
0.0458693
0.0589241
0.0353045
0.0730788
0.0479465
0.0783194
0.0793007
0.0725236
0.0767446
0.0731036
0.0725601
0.0632976
0.0791547
0.0361149
0.0348063
0.0782761
0.0379638
0.0345892
0.0788679
0.0692678
0.0692683
0.0397926
0.0774727
0.0371656
0.0488194
0.078705
0.0792958
0.0381328
0.0481087
0.0764955
0.0379278
0.079369
0.0731112
0.0382279
0.0772713
0.0689016
0.0765609
0.0462619
0.0725298
0.0790979
0.0326865
0.032199
0.0786182
0.061973
0.069258
0.0787594
0.0764376
0.0786735
0.0692457
0.0692666
0.0380174
0.0774869
0.0775874
0.0764583
0.0788398
0.0771395
0.0680537
0.0501038
0.039294
0.0727618
0.07914
0.0720595
0.0671853
0.0791814
0.0495511
0.0369414
0.0774499
0.0724032
0.0497444
0.0785076
0.0483803
0.0359529
0.0690874
0.075419
0.0762796
0.0725386
0.034595
0.0349989
0.0685561
0.0481743
0.0493631
0.0499395
0.071033
0.0703463
0.0753093
0.0772729
0.0725457
0.0449996
0.0367148
0.0765972
0.06823
0.0762579
0.0473305
0.0380287
0.0764093
0.0783206
0.0692635
0.0770033
0.0685324
0.0719684
0.0782369
0.0500937
0.0352234
0.0725154
0.0438057
0.0685428
0.0355181
0.0682769
0.0358313
0.0489984
0.0366933
0.0768261
0.0358387
0.0761918
0.0484969
0.0722372
0.0687298
0.0351959
0.0499298
0.0707331
0.0486063
0.048742
0.0353547
0.0721889
0.0341571
0.0719375
0.0348563
0.0644995
0.0758485
0.0675756
0.0352523
0.0378595
0.0472737
0.0472296
0.0491798
0.0489176
0.0361343
0.034442
0.0702111
0.0716659
0.074939
0.0685243
0.0351476
0.0335499
0.0477087
0.0643053
0.0712193
0.0696717
0.0685043
0.0684725
0.0747137
0.0683784
0.0349428
0.0491179
0.0676576
0.0395978
0.0474831
0.0349104
0.0468841
0.0637698
0.0664669
0.0338794
0.0374751
0.0299022
0.0292027
0.0402652
0.0336821
0.0348575
0.0490585
0.036423
0.048894
0.0351164
0.0355725
0.0491986
0.0345707
0.0357716
0.0484854
0.0472403
0.0366986
0.0379727
0.0359478
0.0473645
0.0372508
0.0472048
0.0330468
0.028366
0.028667
0.0470865
0.0334438
0.0342114
0.0490765
0.0376324
0.0632387
0.0804052
0.0673622
0.0681437
0.067781
0.0485532
0.0332811
0.0790325
0.0711363
0.0711827
0.0285734
0.063879
0.0793552
0.0665833
0.0642243
0.0465978
0.0431177
0.0805533
0.0745099
0.0442847
0.0280713
0.0466336
0.0793259
0.0460473
0.0792213
0.0794431
0.0510275
0.0647978
0.0794602
0.0785889
0.0221827
0.0277885
0.0459815
0.0357243
0.0525688
0.0405637
0.0423057
0.0386125
0.0790826
0.0515418
0.0722888
0.0326717
0.0235757
0.0268362
0.0549322
0.0795943
0.0793046
0.0334331
0.0325768
0.038157
0.075522
0.0780023
0.055742
0.0653626
0.0806032
0.0671237
0.0465023
0.043283
0.0286763
0.0501773
0.0376074
0.0516031
0.0416197
0.0431094
0.0379025
0.0406977
0.0395341
0.0784231
0.0796348
0.0570458
0.0807183
0.0439567
0.0439876
0.0459497
0.0579533
0.0565535
0.044505
0.0796195
0.0608032
0.0616936
0.0688878
0.028335
0.051979
0.0653458
0.0471281
0.0426901
0.0815223
0.0533235
0.0795935
0.025381
0.0626402
0.081237
0.0609976
0.0386074
0.0260726
0.0736737
0.0795464
0.0809807
0.0467746
0.0421578
0.0424492
0.0795088
0.0814494
0.046691
0.0814191
0.0794629
0.0470358
0.079428
0.0813153
0.0659102
0.079355
0.0694968
0.0585915
0.0624839
0.045063
0.079379
0.0439689
0.0436589
0.0810994
)
;

boundaryField
{
    patch0
    {
        type            kqRWallFunction;
        value           nonuniform List<scalar> 
4010
(
0.0737519
0.0737519
0.0748372
0.0748372
0.0793961
0.0793961
0.0798207
0.0798207
0.0752038
0.0752038
0.0799627
0.0799627
0.0801847
0.0801847
0.0803034
0.0803034
0.0803406
0.0803406
0.0792319
0.0792319
0.0804608
0.0804608
0.080506
0.080506
0.0758938
0.0758938
0.0806198
0.0806198
0.0800608
0.0800608
0.0799643
0.0799643
0.0777035
0.0777035
0.0807319
0.0807319
0.0707915
0.0707915
0.0807821
0.0807821
0.0637796
0.0637796
0.0794569
0.0794569
0.0794083
0.0794083
0.0808882
0.0808882
0.0794306
0.0794306
0.0794501
0.0794501
0.0794963
0.0794963
0.077751
0.077751
0.0738771
0.0738771
0.0799008
0.0799008
0.0794518
0.0794518
0.0794347
0.0794347
0.0711247
0.0711247
0.078695
0.078695
0.0786006
0.0786006
0.0794671
0.0794671
0.0794782
0.0794782
0.0755489
0.0755489
0.0793826
0.0793826
0.0791942
0.0791942
0.0794805
0.0794805
0.0687048
0.0687048
0.0794499
0.0794499
0.0790806
0.0790806
0.0769882
0.0769882
0.0664231
0.0664231
0.06672
0.06672
0.0799493
0.0799493
0.0455307
0.0455307
0.0529864
0.0529864
0.0772549
0.0772549
0.0736066
0.0736066
0.0794583
0.0794583
0.0747867
0.0747867
0.0545864
0.0545864
0.0797186
0.0797186
0.0673936
0.0673936
0.0786594
0.0786594
0.0768536
0.0768536
0.0794523
0.0794523
0.0790371
0.0790371
0.0799421
0.0799421
0.07819
0.07819
0.0792984
0.0792984
0.0752074
0.0752074
0.0802902
0.0802902
0.079646
0.079646
0.0794961
0.0794961
0.0701917
0.0701917
0.0766553
0.0766553
0.060766
0.060766
0.0798398
0.0798398
0.0790381
0.0790381
0.080058
0.080058
0.0800496
0.0800496
0.059634
0.059634
0.0805575
0.0805575
0.0802349
0.0802349
0.0802072
0.0802072
0.0783976
0.0783976
0.0816635
0.0816635
0.079501
0.079501
0.0772658
0.0772658
0.0658678
0.0658678
0.0722652
0.0722652
0.079456
0.079456
0.0785008
0.0785008
0.0801355
0.0801355
0.0485613
0.0485613
0.0631613
0.0631613
0.0796862
0.0796862
0.0794625
0.0794625
0.0628797
0.0628797
0.0672746
0.0672746
0.0696206
0.0696206
0.0718913
0.0718913
0.0806135
0.0806135
0.0814947
0.0814947
0.0794779
0.0794779
0.0589885
0.0589885
0.0781294
0.0781294
0.0703031
0.0703031
0.0795288
0.0795288
0.0794714
0.0794714
0.0709045
0.0709045
0.080633
0.080633
0.0760041
0.0760041
0.0726217
0.0726217
0.0794044
0.0794044
0.0670933
0.0670933
0.0806791
0.0806791
0.0718607
0.0718607
0.0766072
0.0766072
0.0793183
0.0793183
0.0804231
0.0804231
0.05965
0.05965
0.0789375
0.0789375
0.0798887
0.0798887
0.0792976
0.0792976
0.0805929
0.0805929
0.0695496
0.0695496
0.043141
0.043141
0.0574544
0.0574544
0.0591368
0.0591368
0.079686
0.079686
0.0767063
0.0767063
0.0647614
0.0647614
0.0802844
0.0802844
0.071056
0.071056
0.0600833
0.0600833
0.0807486
0.0807486
0.0774856
0.0774856
0.0385946
0.0385946
0.0789445
0.0789445
0.074319
0.074319
0.0738964
0.0738964
0.0761262
0.0761262
0.0743731
0.0743731
0.0808644
0.0808644
0.0777629
0.0777629
0.0798089
0.0798089
0.0797998
0.0797998
0.0499877
0.0499877
0.0499877
0.0501993
0.0501993
0.0501993
0.0794119
0.0794119
0.0721989
0.0721989
0.0751751
0.0751751
0.0641527
0.0641527
0.0793762
0.0793762
0.0792574
0.0792574
0.073938
0.073938
0.0451011
0.0451011
0.0451011
0.0700699
0.0700699
0.0784914
0.0784914
0.0798108
0.0798108
0.0780107
0.0780107
0.0436171
0.0436171
0.07743
0.07743
0.0807738
0.0807738
0.0686273
0.0686273
0.079785
0.079785
0.0509077
0.0509077
0.0792014
0.0792014
0.046401
0.046401
0.0731044
0.0731044
0.0760427
0.0760427
0.0787835
0.0787835
0.0441909
0.0441909
0.0806531
0.0806531
0.0738033
0.0738033
0.07134
0.07134
0.0800674
0.0800674
0.0807204
0.0807204
0.0794503
0.0794503
0.0801281
0.0801281
0.0788088
0.0788088
0.0798247
0.0798247
0.042549
0.042549
0.0794153
0.0794153
0.0796646
0.0796646
0.0797007
0.0797007
0.0798986
0.0798986
0.0803091
0.0803091
0.0793166
0.0793166
0.044088
0.044088
0.0708856
0.0708856
0.0730748
0.0730748
0.0797767
0.0797767
0.0807613
0.0807613
0.0800413
0.0800413
0.0767794
0.0767794
0.08026
0.08026
0.0808697
0.0808697
0.0799609
0.0799609
0.0796302
0.0796302
0.0474329
0.0474329
0.0474329
0.0797811
0.0797811
0.0792666
0.0792666
0.079437
0.079437
0.0795178
0.0795178
0.0558508
0.0558508
0.0749727
0.0749727
0.077453
0.077453
0.0803538
0.0803538
0.0739627
0.0739627
0.0797394
0.0797394
0.080113
0.080113
0.0757606
0.0757606
0.0695222
0.0695222
0.0361694
0.0361694
0.0361694
0.0488825
0.0488825
0.0759472
0.0759472
0.0806834
0.0806834
0.0797916
0.0797916
0.0797608
0.0797608
0.0804991
0.0804991
0.0793402
0.0793402
0.0780278
0.0780278
0.0802346
0.0802346
0.08025
0.08025
0.078596
0.078596
0.0767156
0.0767156
0.0785462
0.0785462
0.0805149
0.0805149
0.0804529
0.0804529
0.0797448
0.0797448
0.0809014
0.0809014
0.0811448
0.0811448
0.0799013
0.0799013
0.0796253
0.0796253
0.0478253
0.0478253
0.0795774
0.0795774
0.079615
0.079615
0.0451227
0.0451227
0.0797611
0.0797611
0.0396534
0.0396534
0.0396534
0.0807986
0.0807986
0.0802467
0.0802467
0.0792146
0.0792146
0.0494779
0.0494779
0.0494779
0.0798024
0.0798024
0.0797078
0.0797078
0.0809748
0.0809748
0.0772946
0.0772946
0.0654849
0.0654849
0.0723401
0.0723401
0.0804579
0.0804579
0.0804127
0.0804127
0.0803493
0.0803493
0.0809334
0.0809334
0.0713206
0.0713206
0.0510878
0.0510878
0.0799236
0.0799236
0.077368
0.077368
0.0808181
0.0808181
0.0804499
0.0804499
0.0794252
0.0794252
0.0796339
0.0796339
0.0791733
0.0791733
0.080307
0.080307
0.0794608
0.0794608
0.0796228
0.0796228
0.0794157
0.0794157
0.080468
0.080468
0.0794164
0.0794164
0.079675
0.079675
0.0682209
0.0682209
0.0805994
0.0805994
0.0567868
0.0567868
0.0490832
0.0490832
0.0796487
0.0796487
0.0761293
0.0761293
0.0657404
0.0657404
0.079607
0.079607
0.0795286
0.0795286
0.0818102
0.0818102
0.0805285
0.0805285
0.0797151
0.0797151
0.0784641
0.0784641
0.0796674
0.0796674
0.0541749
0.0541749
0.052542
0.052542
0.052542
0.0796521
0.0796521
0.0799689
0.0799689
0.0705767
0.0705767
0.0801637
0.0801637
0.0809886
0.0809886
0.0558327
0.0558327
0.0802618
0.0802618
0.0796873
0.0796873
0.0798504
0.0798504
0.0789868
0.0789868
0.079729
0.079729
0.0806762
0.0806762
0.0550178
0.0550178
0.0750914
0.0750914
0.0803038
0.0803038
0.0784639
0.0784639
0.0803921
0.0803921
0.0805096
0.0805096
0.0570218
0.0570218
0.0570218
0.0791913
0.0791913
0.0810633
0.0810633
0.0793096
0.0793096
0.0804707
0.0804707
0.0795789
0.0795789
0.0714513
0.0714513
0.0812083
0.0812083
0.0796007
0.0796007
0.0786471
0.0786471
0.0752132
0.0752132
0.079228
0.079228
0.0799453
0.0799453
0.0793921
0.0793921
0.0809337
0.0809337
0.074422
0.074422
0.0796632
0.0796632
0.080305
0.080305
0.0799531
0.0799531
0.0797775
0.0797775
0.0792402
0.0792402
0.0796419
0.0796419
0.0796402
0.0796402
0.0782615
0.0782615
0.0795423
0.0795423
0.081705
0.081705
0.0796999
0.0796999
0.079573
0.079573
0.0802914
0.0802914
0.0809848
0.0809848
0.0796855
0.0796855
0.0795561
0.0795561
0.0793702
0.0793702
0.0805773
0.0805773
0.0798556
0.0798556
0.0796765
0.0796765
0.079468
0.079468
0.0800289
0.0800289
0.0799732
0.0799732
0.0798877
0.0798877
0.0814355
0.0814355
0.078609
0.078609
0.0793928
0.0793928
0.079056
0.079056
0.0802095
0.0802095
0.0797852
0.0797852
0.050065
0.050065
0.0796098
0.0796098
0.0791906
0.0791906
0.0795371
0.0795371
0.0794136
0.0794136
0.0625565
0.0625565
0.0580297
0.0580297
0.0807045
0.0807045
0.0764158
0.0764158
0.0810043
0.0810043
0.0475492
0.0475492
0.0802366
0.0802366
0.0795494
0.0795494
0.0686253
0.0686253
0.0796854
0.0796854
0.0803578
0.0803578
0.0808538
0.0808538
0.0794942
0.0794942
0.0794072
0.0794072
0.0800445
0.0800445
0.0793783
0.0793783
0.0796
0.0796
0.0799298
0.0799298
0.0800331
0.0800331
0.0812332
0.0812332
0.079819
0.079819
0.0795147
0.0795147
0.0797952
0.0797952
0.0794166
0.0794166
0.0417661
0.0417661
0.080232
0.080232
0.0800917
0.0800917
0.0793865
0.0793865
0.0796208
0.0796208
0.0796903
0.0796903
0.0807511
0.0807511
0.0796665
0.0796665
0.0798644
0.0798644
0.0796531
0.0796531
0.0813545
0.0813545
0.0795204
0.0795204
0.0795005
0.0795005
0.0794111
0.0794111
0.0800921
0.0800921
0.05823
0.05823
0.0793369
0.0793369
0.0796765
0.0796765
0.0795106
0.0795106
0.0800715
0.0800715
0.0334831
0.0334831
0.0334831
0.0793976
0.0793976
0.0793762
0.0793762
0.0811241
0.0811241
0.0798066
0.0798066
0.0754013
0.0754013
0.0801541
0.0801541
0.0793834
0.0793834
0.0621886
0.0621886
0.0439254
0.0439254
0.0439254
0.0794288
0.0794288
0.0816267
0.0816267
0.0795221
0.0795221
0.0795108
0.0795108
0.0793931
0.0793931
0.0796298
0.0796298
0.0793171
0.0793171
0.0802663
0.0802663
0.0801536
0.0801536
0.0799489
0.0799489
0.0792749
0.0792749
0.0819611
0.0819611
0.0803588
0.0803588
0.0793892
0.0793892
0.0804529
0.0804529
0.0804839
0.0804839
0.079569
0.079569
0.0817549
0.0817549
0.0780687
0.0780687
0.0793762
0.0793762
0.0808399
0.0808399
0.0810278
0.0810278
0.077207
0.077207
0.0793418
0.0793418
0.0793909
0.0793909
0.0794355
0.0794355
0.0819649
0.0819649
0.079397
0.079397
0.0792756
0.0792756
0.0800411
0.0800411
0.0793901
0.0793901
0.0809845
0.0809845
0.0655748
0.0655748
0.080137
0.080137
0.0793688
0.0793688
0.0796261
0.0796261
0.0793802
0.0793802
0.0798477
0.0798477
0.071423
0.071423
0.0795343
0.0795343
0.0587403
0.0587403
0.0587403
0.0796333
0.0796333
0.0797327
0.0797327
0.0796375
0.0796375
0.0794439
0.0794439
0.0799946
0.0799946
0.0793247
0.0793247
0.0798733
0.0798733
0.0811022
0.0811022
0.0793766
0.0793766
0.0796463
0.0796463
0.0813507
0.0813507
0.0800955
0.0800955
0.0792539
0.0792539
0.0796518
0.0796518
0.0815552
0.0815552
0.0793405
0.0793405
0.0767295
0.0767295
0.0792473
0.0792473
0.0795531
0.0795531
0.0794485
0.0794485
0.079457
0.079457
0.079889
0.079889
0.0801652
0.0801652
0.079683
0.079683
0.0793615
0.0793615
0.0792853
0.0792853
0.0778466
0.0778466
0.0814897
0.0814897
0.0795161
0.0795161
0.0812822
0.0812822
0.0771293
0.0771293
0.080173
0.080173
0.0795339
0.0795339
0.0797335
0.0797335
0.079572
0.079572
0.080063
0.080063
0.0793807
0.0793807
0.0794606
0.0794606
0.0793267
0.0793267
0.0793556
0.0793556
0.079358
0.079358
0.0796846
0.0796846
0.079366
0.079366
0.0811542
0.0811542
0.0699225
0.0699225
0.0793642
0.0793642
0.0792669
0.0792669
0.0804006
0.0804006
0.0804651
0.0804651
0.0818093
0.0818093
0.0795817
0.0795817
0.0793901
0.0793901
0.0793556
0.0793556
0.0787427
0.0787427
0.0805962
0.0805962
0.08
0.08
0.0795757
0.0795757
0.0793331
0.0793331
0.0786808
0.0786808
0.0792452
0.0792452
0.080182
0.080182
0.0793437
0.0793437
0.0792906
0.0792906
0.0809591
0.0809591
0.0806657