/*--------------------------------*- C++ -*----------------------------------*\
  =========                 |
  \\      /  F ield         | OpenFOAM: The Open Source CFD Toolbox
   \\    /   O peration     | Website:  https://openfoam.org
    \\  /    A nd           | Version:  8
     \\/     M anipulation  |
\*---------------------------------------------------------------------------*/
FoamFile
{
    version     2.0;
    format      ascii;
    class       volScalarField;
    location    "0.1";
    object      nut;
}
// * * * * * * * * * * * * * * * * * * * * * * * * * * * * * * * * * * * * * //

dimensions      [0 2 -1 0 0 0 0];

internalField   nonuniform List<scalar> 
1924
(
0.00303562
0.00306039
0.00314932
0.00315873
0.00306639
0.00316096
0.00316598
0.00316825
0.00316919
0.00314747
0.00317175
0.00317268
0.00306456
0.00317522
0.00316365
0.00316163
0.00310714
0.00317761
0.00297203
0.00317868
0.00277825
0.00315108
0.00314924
0.00318084
0.0031505
0.00315095
0.00315195
0.0031217
0.00303203
0.00316018
0.00314994
0.00315059
0.00297739
0.003131
0.00313776
0.00315099
0.00315156
0.00306741
0.00314859
0.00314328
0.00315161
0.00289468
0.00315094
0.00314123
0.00310595
0.00286874
0.00289304
0.00316312
0.00234726
0.00251561
0.00310271
0.00301072
0.0031511
0.00305376
0.00258949
0.00315876
0.0029008
0.00313881
0.0031041
0.00315097
0.00314087
0.00316119
0.00312126
0.00314675
0.00306021
0.00316967
0.00315504
0.0031518
0.0029474
0.00308863
0.00273903
0.00315903
0.00314112
0.00316363
0.0031634
0.00270711
0.00317466
0.00316754
0.00316787
0.00312712
0.0031962
0.00315205
0.00310946
0.00283563
0.00299994
0.003151
0.00313641
0.00316525
0.00240908
0.00278629
0.00315588
0.00315122
0.00277939
0.00287123
0.00292829
0.00299137
0.00317571
0.00319295
0.00315152
0.00269383
0.00311933
0.00293898
0.00315261
0.0031514
0.00295247
0.00317636
0.00306953
0.00299264
0.00314995
0.00286883
0.00317708
0.00298021
0.00309432
0.00314925
0.00317197
0.00269147
0.0031373
0.00316003
0.00314762
0.00317541
0.00294101
0.000883665
0.00262545
0.00269787
0.00315585
0.00308502
0.00282134
0.00316866
0.00295796
0.000966446
0.00317856
0.00310283
0.000253102
0.00314244
0.00302965
0.00302028
0.0030772
0.00303441
0.00318028
0.00311882
0.00316079
0.00315821
0.000230289
0.000230523
0.00314762
0.00300268
0.0030503
0.00281037
0.00314934
0.00314675
0.00304129
0.000453104
0.00294011
0.00312578
0.00315673
0.00311519
0.000884221
0.00310542
0.00317909
0.000340892
0.00315841
0.00249743
0.00314232
0.00092243
0.00302201
0.0030692
0.00313322
0.000672554
0.00317666
0.00301851
0.00298127
0.0031627
0.00317822
0.00315095
0.00316662
0.00313435
0.00315877
0.000528589
0.00315
0.00315344
0.00315578
0.00316023
0.00316925
0.00314599
0.00232795
0.00298267
0.00300595
0.00315778
0.00317895
0.00316373
0.00308742
0.00316717
0.00318111
0.00316046
0.00315352
0.000464727
0.00315798
0.00314522
0.00314927
0.00315138
0.000574705
0.00306611
0.0031017
0.00316957
0.00303672
0.00315689
0.00316439
0.00306533
0.00292786
0.000185654
0.000943879
0.00306724
0.00317646
0.00315758
0.00315753
0.00317344
0.00314857
0.00311604
0.00316724
0.00316792
0.00312913
0.00309926
0.00312734
0.00317301
0.00317182
0.00315723
0.00318168
0.00318708
0.00316022
0.00315415
0.000399485
0.00315361
0.0031537
0.000478433
0.00315756
0.000195483
0.00317872
0.00316776
0.00314319
0.000474888
0.00315823
0.00315634
0.00318229
0.00309972
0.000468089
0.00298913
0.00317214
0.00317175
0.00317011
0.0031827
0.00299371
0.000826604
0.00316088
0.00309969
0.0031802
0.00317161
0.0031504
0.00315488
0.0031428
0.0031691
0.00314965
0.00315314
0.0031502
0.00317273
0.00315019
0.00315513
0.00288877
0.00317557
0.00263413
0.000543348
0.00315494
0.00308483
0.00285844
0.00315433
0.00315258
0.00319867
0.00317363
0.00315659
0.00312518
0.00315519
0.000651594
0.000348697
0.00315518
0.00316191
0.00295884
0.00316613
0.00318339
0.000842244
0.00316819
0.00315599
0.00315866
0.00314011
0.00315687
0.00317613
0.00257705
0.00306192
0.00316864
0.00312617
0.00317107
0.00317278
0.000488091
0.00314246
0.00318399
0.00314792
0.00317248
0.00315372
0.00296334
0.0031869
0.00315419
0.00313783
0.00305253
0.00314612
0.00316143
0.00314965
0.00318261
0.00303198
0.00315466
0.00316908
0.0031613
0.00315744
0.0031457
0.00315495
0.00315317
0.00312685
0.00315294
0.00319835
0.00315627
0.0031536
0.00316919
0.00318325
0.0031558
0.00315315
0.00314918
0.00317462
0.00315928
0.00315576
0.0031513
0.0031631
0.003162
0.00315935
0.00319297
0.00313475
0.00314966
0.00314013
0.00316665
0.00315786
0.000382255
0.00315424
0.00314532
0.00315283
0.00315013
0.000430211
0.00062238
0.00317666
0.00307843
0.00318402
0.00239455
0.0031676
0.00315309
0.00291911
0.00315593
0.00316962
0.00317967
0.00315185
0.00314999
0.00316312
0.00314935
0.00315412
0.00316107
0.00316328
0.0031873
0.00315859
0.00315235
0.00315807
0.00315021
0.000523565
0.00316708
0.00316425
0.00314953
0.00315445
0.00315587
0.00317873
0.00315559
0.00315966
0.00315522
0.0031897
0.00315197
0.00315198
0.00315009
0.00316443
0.000549109
0.00314846
0.00315579
0.00315219
0.00316413
0.000152278
0.00314978
0.0031493
0.00318583
0.0031583
0.00306773
0.00316592
0.00314799
0.00275543
0.00022803
0.00315047
0.00319488
0.00315242
0.00315226
0.00314968
0.00315475
0.00314803
0.00316817
0.00316584
0.00316144
0.00314718
0.00320176
0.00316961
0.00314959
0.00317242
0.00317213
0.00315349
0.00319734
0.00311653
0.00314931
0.00317932
0.00318458
0.00310175
0.00314856
0.00314965
0.00315061
0.00320269
0.00314979
0.00314715
0.00316344
0.00314963
0.0031822
0.00282804
0.00316554
0.00314914
0.0031547
0.00314941
0.00315937
0.00298552
0.00315265
0.000204967
0.00315481
0.00315684
0.00315497
0.00315079
0.00316221
0.00314819
0.00315992
0.00318519
0.00314933
0.00315515
0.00318947
0.00316424
0.00314668
0.00315506
0.00319502
0.00314853
0.00308562
0.00314654
0.00315232
0.00315088
0.00315105
0.00316017
0.00316615
0.00315762
0.00314899
0.00314736
0.00311588
0.00319213
0.00315235
0.00318956
0.00309993
0.00316617
0.00315264
0.00315678
0.00315351
0.00316389
0.00314944
0.00315112
0.00314824
0.00314886
0.00314893
0.00315578
0.00314912
0.00318712
0.00293038
0.00314908
0.00314696
0.00317143
0.00317169
0.00319837
0.00315361
0.00314965
0.00314888
0.00313625
0.00317432
0.00316229
0.00315364
0.00314838
0.0031308
0.00314655
0.00316595
0.00314862
0.00314747
0.00318158
0.00317677
0.00320075
0.0031497
0.00315911
0.00314982
0.00314987
0.00314815
0.00315425
0.00316526
0.00315537
0.00314616
0.00316399
0.00320335
0.00318458
0.0031595
0.00315439
0.00312177
0.00314564
0.00314851
0.00316029
0.00314589
0.00316647
0.00314712
0.00314953
0.00315377
0.00314985
0.00316285
0.00315176
0.00312397
0.00314811
0.00314748
0.00315025
0.00313721
0.00316732
0.0031919
0.0031484
0.00307911
0.00313689
0.003151
0.00318884
0.00314836
0.0031487
0.0031567
0.00314635
0.00314815
0.00314894
0.00314808
0.00312047
0.00311694
0.0030767
0.00314794
0.00314576
0.00285337
0.00314874
0.00315297
0.00315076
0.00320094
0.00317319
0.00309209
0.00314718
0.00319474
0.00314852
0.00314807
0.00314882
0.00313186
0.00314891
0.00314903
0.0031447
0.00317388
0.00314799
0.00314737
0.00315268
0.00316563
0.00314886
0.00306864
0.00314341
0.00316773
0.00314462
0.00319908
0.00314385
0.00314774
0.00314599
0.000638892
0.00310344
0.00313362
0.00317676
0.00314891
0.00318341
0.00314982
0.00314539
0.00288115
0.00316554
0.0031587
0.00309814
0.00314646
0.00316466
0.0031534
0.00318975
0.00315148
0.00314384
0.00314761
0.00315973
0.00314869
0.00318997
0.00314713
0.00315087
0.00315841
0.00315419
0.00299052
0.00314305
0.00318401
0.00320099
0.00316995
0.00314716
0.00316301
0.00309886
0.00314753
0.00315153
0.00315352
0.00314778
0.00315401
0.00314762
0.00318642
0.00314516
0.00314614
0.00288861
0.00314756
0.00303956
0.00314778
0.00318695
0.00314794
0.003148
0.00314648
0.00314731
0.00314586
0.00316098
0.00314696
0.00315535
0.0031478
0.00315198
0.00314521
0.00314802
0.00312361
0.00315866
0.00314775
0.00314807
0.0031449
0.00318158
0.00314721
0.00314738
0.00314909
0.00314352
0.00310843
0.00319157
0.0031481
0.00307401
0.00314684
0.00315286
0.00314541
0.0031462
0.00314641
0.00319795
0.00301695
0.00319176
0.00315938
0.00319341
0.00316431
0.00315493
0.00313112
0.00314736
0.0031699
0.00316741
0.00314953
0.00314875
0.0031467
0.00316153
0.00314807
0.00312135
0.00317624
0.00314535
0.00315525
0.00315813
0.00317274
0.00314681
0.00314475
0.00316235
0.003147
0.00314878
0.00314617
0.00314624
0.00319178
0.00314438
0.00314701
0.00314902
0.00308529
0.00314704
0.00314726
0.00314674
0.00317899
0.00314553
0.00314501
0.00313775
0.00314728
0.00312971
0.00314646
0.00315263
0.00314733
0.00314439
0.00316052
0.0028915
0.00312375
0.00315073
0.00319507
0.00314642
0.00315386
0.00052472
0.000250076
0.00291475
0.00315341
0.00318316
0.00314736
0.00314636
0.00314207
0.00314605
0.00314865
0.00314635
0.00314803
0.00314715
0.00314939
0.00314417
0.00310875
0.00314739
0.00319321
0.000541993
0.00317011
0.000587925
0.00314556
0.00314632
0.00314516
0.00318438
0.00314599
0.00314528
0.00316444
0.00309938
0.00313563
0.00315734
0.00296154
0.00300029
0.00308539
0.00314986
0.00298871
0.0031474
0.00315321
0.00317978
0.00314583
0.0031459
0.00314602
0.00314551
0.00314345
0.00314628
0.00315176
0.00314623
0.0031309
0.00314663
0.00315269
0.0031694
0.00314522
0.00314594
0.00314446
0.00314657
0.0031437
0.00317197
0.00316133
0.00294505
0.00317687
0.00299416
0.00315454
0.00314642
0.00316199
0.00314979
0.00314566
0.00314357
0.0031641
0.00314666
0.00314537
0.00318059
0.00317177
0.00288331
0.00314645
0.00314387
0.00308607
0.00315277
0.00314566
0.0029578
0.00318597
0.0031567
0.00307331
0.00315087
0.00314672
0.00314521
0.00300812
0.00317506
0.00314747
0.000558711
0.00314407
0.00314506
0.00314854
0.00313196
0.00314554
0.00314802
0.00314308
0.00315742
0.00315776
0.00313745
0.00314728
0.00317541
0.00314511
0.00314777
0.00314675
0.00314501
0.00315246
0.00317439
0.00314418
0.00314554
0.00314515
0.00314548
0.00315016
0.00314794
0.003166
0.000213832
0.00317392
0.000610014
0.0031457
0.00314527
0.00235947
0.00314246
0.00314573
0.00314492
0.00314925
0.00314284
0.00316272
0.00314673
0.00314235
0.00317835
0.00315167
0.00314595
0.00314232
0.00314421
0.00308578
0.00303567
0.00314765
0.00315623
0.00314598
0.00292407
0.00314256
0.00314605
0.00310813
0.00314518
0.00314332
0.00314474
0.00316422
0.00314307
0.0031418
0.00315924
0.00314415
0.00289604
0.00317575
0.003143
0.000632295
0.00314583
0.00295331
0.00314321
0.00314862
0.00292918
0.00314466
0.00314487
0.00314609
0.00317692
0.00314671
0.00314721
0.00314402
0.00314738
0.000594555
0.00315276
0.00316353
0.00316553
0.00316817
0.00315007
0.00314185
0.00315282
0.00314392
0.00294094
0.00314326
0.00291295
0.00314484
0.00314466
0.00315908
0.00313105
0.00314504
0.00315732
0.003145
0.00289011
0.00316775
0.000189004
0.00299692
0.00314614
0.00313655
0.00314478
0.00314323
0.00309963
0.00295978
0.00315209
0.00314381
0.00313229
0.00315381
0.00314394
0.00315139
0.00315597
0.00316292
0.00314516
0.00314311
0.00314938
0.00314452
0.00313881
0.0031454
0.00315286
0.00314751
0.00313908
0.00314518
0.00314615
0.00314699
0.000322726
0.00314711
0.00295317
0.00062647
0.00314532
0.00314291
0.00314544
0.00314135
0.00315065
0.00313854
0.00314434
0.000280689
0.00313917
0.00314695
0.000286748
0.00314125
0.000251945
0.00314235
0.00314811
0.00311373
0.00311085
0.00313919
0.00317083
0.00308438
0.00314551
0.00315392
0.00314354
0.00314439
0.00310717
0.00313917
0.00313914
0.00301304
0.00314434
0.00315232
0.00288131
0.00314413
0.00314451
0.00314654
0.00302156
0.00315004
0.00314454
0.00313803
0.003139
0.00314414
0.00314608
0.00314265
0.00307099
0.00295828
0.00313445
0.0031504
0.00314555
0.00311345
0.00313879
0.00313455
0.00311545
0.00313398
0.0031468
0.00314702
0.00314297
0.00314397
0.00313016
0.00313431
0.00314756
0.00313457
0.00315313
0.00315086
0.00318121
0.00316253
0.00309284
0.00313852
0.00313576
0.00314877
0.00314476
0.00316196
0.00314663
0.0031448
0.00314463
0.00313453
0.00314322
0.00315847
0.00315109
0.00316015
0.000326417
0.00311723
0.00310483
0.00314489
0.00313441
0.00314555
0.00315755
0.0031529
0.00297079
0.00313385
0.0031345
0.00314642
0.00290984
0.00299491
0.00313415
0.00318306
0.00314801
0.00314233
0.00313735
0.00315038
0.00316746
0.00314599
0.00314817
0.00314372
0.00306768
0.00314392
0.00314389
0.00314493
0.00313383
0.00315488
0.00314047
0.00313821
0.00319497
0.00317459
0.00314357
0.0031535
0.0031455
0.003115
0.00314402
0.00313328
0.00311464
0.00288592
0.00314147
0.00308984
0.00315091
0.00314285
0.00306409
0.00308332
0.00314926
0.00310654
0.00313347
0.00311431
0.00314404
0.00314498
0.000623448
0.00314677
0.00311396
0.00314197
0.000621703
0.00314427
0.00311352
0.00290889
0.00313511
0.00311511
0.0030424
0.00314417
0.0031487
0.00314357
0.00311303
0.00314628
0.000626215
0.000616763
0.00313787
0.00314431
0.00315041
0.00319084
0.00314495
0.00312943
0.00309408
0.00311255
0.00311591
0.000634166
0.00314328
0.00272258
0.00311515
0.00314342
0.00314583
0.00314314
0.00313502
0.00314545
0.000207418
0.000200817
0.00317068
0.00313979
0.00313308
0.00315777
0.00309372
0.00314246
0.00314345
0.00313202
0.00314725
0.00315752
0.00314541
0.00307064
0.00314438
0.00309337
0.000614036
0.00303116
0.0031457
0.00314503
0.00314942
0.00309295
0.00309449
0.00314158
0.00313046
0.00304094
0.00299419
0.00309232
0.00314615
0.000245275
0.00290794
0.00311464
0.0031121
0.000667427
0.00313749
0.00309166
0.000614646
0.000532235
0.00314436
0.0030118
0.00314897
0.00314521
0.00315039
0.00315565
0.00313934
0.00314456
0.00314611
0.00314366
0.00314354
0.000267777
0.000754998
0.00313267
0.000565268
0.00308269
0.0031437
0.00294728
0.00309102
0.0031543
0.00309406
0.0030953
0.00310608
0.00316829
0.00314514
0.00314378
0.00295165
0.00316459
0.00314478
0.00314438
0.00309467
0.0031476
0.00309636
0.00314308
0.00300965
0.000622723
0.00311166
0.00314283
0.00314204
0.000736728
0.00300841
0.0031427
0.00288154
0.000601084
0.00314171
0.00299932
0.00314116
0.00300733
0.0031127
0.00314393
0.00314931
0.00314377
0.00301137
0.00314403
0.00300621
0.0031371
0.00310495
0.00293987
0.00314131
0.00300516
0.00315061
0.00312838
0.00314652
0.0031081
0.00303508
0.003142
0.00309042
0.00314582
0.000241154
0.000230856
0.00314296
0.00313224
0.0030043
0.00313049
0.00314892
0.00313341
0.00309358
0.00276798
0.000739087
0.00313448
0.00311126
0.00314299
0.00315372
0.00313707
0.0031365
0.00313736
0.00301445
0.00314343
0.00292721
0.00315159
0.00314129
0.00314347
0.00299417
0.00290705
0.00314768
0.00300359
0.00314318
0.00292606
0.000271335
0.00314311
0.00292514
0.00313718
0.00292425
0.00314055
0.000629684
0.00305617
0.00305583
0.00080348
0.00314317
0.00314093
0.002923
0.000267871
0.00308038
0.00308985
0.00310229
0.00301508
0.00292177
0.0029292
0.00315378
0.00314161
0.00299019
0.00308182
0.00301514
0.0028353
0.00313671
0.00314669
0.00314073
0.00301895
0.00310473
0.00283297
0.00314016
0.00311608
0.000622946
0.00313686
0.000720636
0.00314225
0.00314218
0.00314289
0.00313181
0.00311779
0.00292065
0.00313646
0.00304361
0.00314289
0.00308807
0.00311615
0.00313757
0.00314255
0.00300305
0.000293375
0.00314238
0.00311087
0.00299978
0.00314912
0.00311703
0.00283115
0.00313608
0.000295872
0.00293262
0.0031161
0.00317975
0.000299671
0.00274746
0.00308932
0.00313749
0.00316962
0.00301414
0.00309925
0.00314232
0.000500091
0.00309607
0.00311674
0.00309777
0.00291968
0.00314261
0.000290954
0.00309555
0.00314508
0.00293221
0.00313972
0.00314866
0.00293327
0.00314259
0.00314251
0.00312572
0.00308335
0.00312403
0.00314746
0.000287502
0.000306793
0.00312473
0.0029419
0.00301827
0.000267326
0.00314231
0.00309715
0.000578517
0.00313567
0.00300265
0.00309594
0.00315202
0.00048896
0.000338249
0.00301203
0.00311606
0.000695977
0.000225793
0.000242408
0.00299355
0.00309824
0.00293313
0.00290647
0.0031363
0.00314211
0.0031403
0.00311662
0.00313761
0.00314175
0.000289913
0.00314204
0.000275375
0.00028888
0.00314652
0.00309595
0.00301966
0.000319281
0.00314117
0.00293212
0.00313139
0.000636285
0.00300561
0.00063502
0.00313924
0.000623666
0.00310391
0.00293508
0.00063401
0.00314906
0.000662137
0.00309701
0.00311053
0.000621888
0.000633171
0.00301205
0.00063254
0.00302525
0.000549184
0.000632301
0.00291883
0.0029331
0.00293185
0.0029497
0.000438669
0.000323746
0.000632257
0.00314194
0.00307766
0.00313522
0.00314181
0.00301156
0.00308884
0.00300649
0.00313874
0.00315023
0.00314174
0.000638834
0.0030077
0.00286063
0.00311647
0.00309996
0.00314202
0.00309705
0.00312906
0.000266545
0.00297327
0.000632349
0.00315099
0.00315041
0.00314118
0.0030024
0.00309686
0.0029282
0.00301294
0.00313474
0.000341164
0.0030614
0.00311571
0.00296513
0.000628968
0.00281239
0.00293256
0.00300608
0.00309579
0.00313822
0.000640261
0.00314142
0.00313589
0.000640529
0.00311628
0.00314838
0.000689248
0.00293489
0.00313756
0.00313716
0.000632571
0.00292754
0.00314073
0.00313095
0.000642035
0.00314118
0.00291812
0.00292945
0.00313422
0.000293093
0.00314134
0.00268383
0.00313986
0.003147
0.00314062
0.00292719
0.00305118
0.00314165
0.00295531
0.00314601
0.00290656
0.00309665
0.000310981
0.000658811
0.000633269
0.000339938
0.00311021
0.000660163
0.00314048
0.00301368
0.00292672
0.000624659
0.000265556
0.00268611
0.0031377
0.00314344
0.00315044
0.00303396
0.00307789
0.00310671
0.000643876
0.00311604
0.00290338
0.00313717
0.00314021
0.00293292
0.00314001
0.00308841
0.00298715
0.0028806
0.000632919
0.0031337
0.00313938
0.00294434
0.00313548
0.00290295
0.000275269
0.00300524
0.000616266
0.000275434
0.00311577
0.000275654
0.00313318
0.00311473
0.000275754
0.0030964
0.000634879
0.000275738
0.0031365
0.00297397
0.000645532
0.000275635
0.000275454
0.00313052
0.00314943
0.0031326
0.00309482
0.0030023
0.00313882
0.00292676
0.003147
0.000236194
0.000221537
0.000275172
0.00310991
0.00301436
0.00311547
0.000628352
0.00313854
0.00065458
0.000634843
0.00313498
0.00311514
0.000629299
0.000643401
0.00305602
0.0028332
0.000274793
0.000628117
0.00309609
0.000264402
0.00287112
0.00313458
0.00311462
0.00308459
0.00313006
0.000274881
0.000273909
0.00293317
0.00309575
0.00027288
0.00313614
0.000633385
0.00313141
0.00291754
0.000303095
0.000263119
0.000276967
0.000636031
0.00305996
0.00280903
0.00314076
0.00309492
0.00309538
0.00314821
0.00289602
0.00310962
0.00314645
0.0031336
0.000271782
0.00314583
0.00298673
0.003088
0.000624336
0.00313632
0.000274323
0.00314529
0.00311701
0.000286827
0.000613747
0.0031093
0.00312919
0.00311278
0.00301641
0.000278672
0.00301599
0.000295779
0.000625575
0.000622194
0.00309381
0.00313955
0.00311291
0.00310924
0.00314132
0.00301662
0.000627697
0.00308761
0.00032582
0.000308816
0.00269745
0.000270453
0.00301497
0.000630931
0.0031262
0.00314746
0.00300233
0.00309265
0.00301551
0.00300326
0.00279668
0.00314444
0.000273767
0.000268421
0.00312523
0.000281006
0.000263066
0.00313808
0.00293357
0.00293359
0.000288115
0.00310792
0.000277972
0.000637196
0.0031346
0.00314742
0.000281772
0.000631837
0.0030872
0.000280899
0.00314904
0.00301555
0.000281772
0.00310353
0.00292509
0.00308865
0.000619512
0.00300246
0.00314312
0.000259664
0.000257698
0.00313265
0.00276599
0.00293338
0.00313561
0.00308675
0.00313391
0.00293303
0.00293355
0.000281194
0.00310863
0.00311038
0.00308636
0.00313742
0.00310058
0.00290835
0.000645538
0.000286076
0.00300762
0.00314402
0.00299394
0.00288604
0.00314318
0.000642107
0.000277099
0.0031073
0.00299973
0.000643408
0.00313015
0.000633973
0.000273126
0.00292929
0.00306369
0.00308236
0.00300264
0.000266973
0.000269405
0.00291712
0.000632377
0.000640844
0.000644719
0.00296943
0.00295424
0.00306125
0.00310332
0.00300278
0.000610174
0.000275863
0.0030894
0.00290962
0.00308242
0.000627
0.000281221
0.00308523
0.00312605
0.00293349
0.00309775
0.00291656
0.00299115
0.00312414
0.000645728
0.000270537
0.00300205
0.000602875
0.00291681
0.000271454
0.0029124
0.000272711
0.000638397
0.000276127
0.00309349
0.000271642
0.00308037
0.000634871
0.00299576
0.00292117
0.00027015
0.000644496
0.00296263
0.00063549
0.000636407
0.000270733
0.0029949
0.000261341
0.00298922
0.000268762
0.00282525
0.00307271
0.00289555
0.000270775
0.000280546
0.000626585
0.000626237
0.000639613
0.000637816
0.000273919
0.000267038
0.00295162
0.00298301
0.00305322
0.00291637
0.000270364
0.000263267
0.000629125
0.00282069
0.00297285
0.00293867
0.00291588
0.0029153
0.00304808
0.00291292
0.000269315
0.000638652
0.00289642
0.000286856
0.000627487
0.000268914
0.000623132
0.00280865
0.00286902
0.000264378
0.000554733
0.000247615
0.000244518
0.000575703
0.000263556
0.000268716
0.00063855
0.000275063
0.000637437
0.00026977
0.000271609
0.000639478
0.000267539
0.000272405
0.000634676
0.000626138
0.000276049
0.000280991
0.000273094
0.000626857
0.000278195
0.000625997
0.000261143
0.000241042
0.000242409
0.000624723
0.000262806
0.000266043
0.000638548
0.000279667
0.00279593
0.00317137
0.00288965
0.0029078
0.00289943
0.000624625
0.000257748
0.00314103
0.00297128
0.00297923
0.000240057
0.00281108
0.00314886
0.00287797
0.00281898
0.000613844
0.000560244
0.00317455
0.00304847
0.000271422
0.000236441
0.000278606
0.00314822
0.00238076
0.00314533
0.00315077
0.000291747
0.00282667
0.00314996
0.00313245
0.000170737
0.000191567
0.000277358
0.000244364
0.000317342
0.000254472
0.000265921
0.000254353
0.00314199
0.000585474
0.00300316
0.000213979
0.000181613
0.000193405
0.000604959
0.00315339
0.00314777
0.000231702
0.000165292
0.000179499
0.00307008
0.00312063
0.000463797
0.00285258
0.00317566
0.00287158
0.00237986
0.000576423
0.000224457
0.000716938
0.000491344
0.000747753
0.000527466
0.000532854
0.000503595
0.000223856
0.000222431
0.00312757
0.00315458
0.00263464
0.00317814
0.000319655
0.000494359
0.000413566
0.00266375
0.00260568
0.000512687
0.00315443
0.00273335
0.00273205
0.00292004
0.000226061
0.00248714
0.00283644
0.00239513
0.000532146
0.00319313
0.0025515
0.00315396
0.000201938
0.00278066
0.00318772
0.00274126
0.000372425
0.000203782
0.0030243
0.00315298
0.00318259
0.00239164
0.00225129
0.000244946
0.00315219
0.00319198
0.0023577
0.00319114
0.0031512
0.00055798
0.00315044
0.00318933
0.0028567
0.00314886
0.00293324
0.00268735
0.00276661
0.000187686
0.00314938
0.000476234
0.000227263
0.00318502
)
;

boundaryField
{
    patch0
    {
        type            nutkWallFunction;
        Cmu             0.09;
        kappa           0.41;
        E               9.8;
        value           nonuniform List<scalar> 
4010
(
0.000334284
0.000334284
0.00030662
0.00030662
0.000355713
0.000355713
0.000349686
0.000349686
0.000338844
0.000338844
0.000356882
0.000356882
0.000356975
0.000356975
0.000357302
0.000357302
0.000357582
0.000357582
0.000355346
0.000355346
0.000357906
0.000357906
0.000357998
0.000357998
0.000348416
0.000348416
0.000358231
0.000358231
0.000357087
0.000357087
0.000356889
0.000356889
0.000352213
0.000352213
0.00035846
0.00035846
0.000330762
0.000330762
0.000358562
0.000358562
0.0003216
0.0003216
0.000355846
0.000355846
0.000355746
0.000355746
0.000358779
0.000358779
0.000355792
0.000355792
0.000355832
0.000355832
0.000355927
0.000355927
0.000350179
0.000350179
0.000343759
0.000343759
0.000281457
0.000281457
0.000355835
0.000355835
0.0003558
0.0003558
0.000338148
0.000338148
0.000354273
0.000354273
0.00035387
0.00035387
0.000355867
0.000355867
0.00035589
0.00035589
0.000346085
0.000346085
0.000280621
0.000280621
0.000355305
0.000355305
0.000355894
0.000355894
0.000332816
0.000332816
0.000355832
0.000355832
0.00035507
0.00035507
0.000276748
0.000276748
0.000327678
0.000327678
0.000259308
0.000259308
0.000281559
0.000281559
0.000264421
0.000264421
0.000294756
0.000294756
0.000351276
0.000351276
0.000343545
0.000343545
0.000355849
0.000355849
0.000346068
0.000346068
0.000299315
0.000299315
0.000355453
0.000355453
0.000262782
0.000262782
0.000279475
0.000279475
0.000276898
0.000276898
0.000355836
0.000355836
0.00035498
0.00035498
0.000356843
0.000356843
0.000353225
0.000353225
0.000280485
0.000280485
0.000346962
0.000346962
0.000282161
0.000282161
0.000356235
0.000356235
0.000355927
0.000355927
0.000336064
0.000336064
0.00035002
0.00035002
0.000314504
0.000314504
0.000356633
0.000356633
0.000280063
0.000280063
0.00028171
0.00028171
0.000281696
0.000281696
0.000311788
0.000311788
0.000282743
0.000282743
0.000281994
0.000281994
0.00028195
0.00028195
0.000353656
0.000353656
0.000360356
0.000360356
0.000355937
0.000355937
0.000277175
0.000277175
0.000326412
0.000326412
0.000340566
0.000340566
0.000355844
0.000355844
0.000283545
0.000283545
0.00035724
0.00035724
0.000280287
0.000280287
0.000320162
0.000320162
0.000356318
0.000356318
0.000355857
0.000355857
0.000319503
0.000319503
0.000329607
0.000329607
0.000334852
0.000334852
0.000339837
0.000339837
0.000283318
0.000283318
0.00035925
0.00035925
0.000355889
0.000355889
0.000310226
0.000310226
0.000353098
0.000353098
0.000336359
0.000336359
0.000355994
0.000355994
0.000355876
0.000355876
0.000337681
0.000337681
0.000282633
0.000282633
0.000348637
0.000348637
0.000341421
0.000341421
0.000355738
0.000355738
0.000329197
0.000329197
0.000282992
0.000282992
0.00033977
0.00033977
0.000349588
0.000349588
0.000280517
0.000280517
0.000282296
0.000282296
0.000311824
0.000311824
0.000354768
0.000354768
0.000356734
0.000356734
0.000355518
0.000355518
0.000282568
0.000282568
0.000334693
0.000334693
8.847e-05
8.847e-05
0.000306362
0.000306362
0.000310586
0.000310586
0.000356317
0.000356317
0.000350127
0.000350127
0.000323875
0.000323875
0.000282073
0.000282073
0.000338013
0.000338013
9.56891e-05
9.56891e-05
0.000283078
0.000283078
0.000351758
0.000351758
2.7701e-05
2.7701e-05
0.000279912
0.000279912
0.000345071
0.000345071
0.000344167
0.000344167
0.000347812
0.000347812
0.000345122
0.000345122
0.00035873
0.00035873
0.000352241
0.000352241
0.000282227
0.000282227
0.000356551
0.000356551
2.56533e-05
2.56533e-05
2.56533e-05
2.40622e-05
2.40622e-05
2.40622e-05
0.000355752
0.000355752
0.000268715
0.000268715
0.000346894
0.000346894
0.000322468
0.000322468
0.00035568
0.00035568
0.000355435
0.000355435
0.000271654
0.000271654
4.80289e-05
4.80289e-05
4.80289e-05
0.000335845
0.000335845
0.000353851
0.000353851
0.000356571
0.000356571
0.000352853
0.000352853
8.89709e-05
8.89709e-05
0.000351511
0.000351511
0.000287751
0.000287751
3.693e-05
3.693e-05
0.00028127
0.00028127
0.000289819
0.000289819
0.000355319
0.000355319
9.14279e-05
9.14279e-05
0.00027025
0.00027025
0.00034873
0.00034873
0.000354456
0.000354456
6.97206e-05
6.97206e-05
0.000282665
0.000282665
0.000343967
0.000343967
0.000338618
0.000338618
0.000357099
0.000357099
0.000282773
0.000282773
0.000355832
0.000355832
0.000296801
0.000296801
0.000354508
0.000354508
0.000281334
0.000281334
6.43569e-05
6.43569e-05
0.00035576
0.00035576
0.000356273
0.000356273
0.000356348
0.000356348
0.000356754
0.000356754
0.000282113
0.000282113
0.000355557
0.000355557
0.000254162
0.000254162
0.00026656
0.00026656
0.0003424
0.0003424
0.000356504
0.000356504
0.000282838
0.000282838
0.000281683
0.000281683
0.00035028
0.00035028
0.000357495
0.000357495
0.000283377
0.000283377
0.000356882
0.000356882
0.000356203
0.000356203
4.91391e-05
4.91391e-05
4.91391e-05
0.000356513
0.000356513
0.000355454
0.000355454
0.000355805
0.000355805
0.000355971
0.000355971
6.97938e-05
6.97938e-05
0.000274416
0.000274416
0.00035169
0.00035169
0.000357687
0.000357687
0.000344097
0.000344097
0.000356427
0.000356427
0.000357194
0.000357194
0.000348134
0.000348134
0.000334634
0.000334634
1.80096e-05
1.80096e-05
1.80096e-05
9.36108e-05
9.36108e-05
0.000348528
0.000348528
0.000358361
0.000358361
0.000356534
0.000356534
0.000356471
0.000356471
0.000282418
0.000282418
0.000355605
0.000355605
0.000352888
0.000352888
0.000357443
0.000357443
0.000282018
0.000282018
0.000354068
0.000354068
0.000276271
0.000276271
0.000353965
0.000353965
0.000358017
0.000358017
0.00035789
0.00035789
0.000356438
0.000356438
0.000355283
0.000355283
0.000283475
0.000283475
0.00035676
0.00035676
0.000356193
0.000356193
4.6978e-05
4.6978e-05
0.000356094
0.000356094
0.000356171
0.000356171
5.79795e-05
5.79795e-05
0.000356472
0.000356472
2.2216e-05
2.2216e-05
2.2216e-05
0.000358596
0.000358596
0.000357468
0.000357468
0.000355347
0.000355347
5.00929e-05
5.00929e-05
5.00929e-05
0.000356557
0.000356557
0.000356362
0.000356362
0.000358955
0.000358955
0.000351359
0.000351359
4.92538e-05
4.92538e-05
0.000340811
0.000340811
0.0003579
0.0003579
0.000305823
0.000305823
0.000282178
0.000282178
0.000283114
0.000283114
0.000267254
0.000267254
8.29308e-05
8.29308e-05
0.000356805
0.000356805
0.000351513
0.000351513
0.000282929
0.000282929
0.000357884
0.000357884
0.000355781
0.000355781
0.00035621
0.00035621
0.000355261
0.000355261
0.000357591
0.000357591
0.000355854
0.000355854
0.000356187
0.000356187
0.000355761
0.000355761
0.000282368
0.000282368
0.000355763
0.000355763
0.000281093
0.000281093
0.000331733
0.000331733
0.000282579
0.000282579
0.000304827
0.000304827
5.64501e-05
5.64501e-05
0.000356241
0.000356241
0.000275304
0.000275304
0.000326122
0.000326122
0.000356155
0.000356155
0.000355994
0.000355994
0.000360653
0.000360653
0.000358044
0.000358044
0.000356377
0.000356377
0.000353794
0.000353794
0.000356279
0.000356279
7.92852e-05
7.92852e-05
3.77959e-05
3.77959e-05
3.77959e-05
0.000356248
0.000356248
0.000356898
0.000356898
0.000336961
0.000336961
0.00028188
0.00028188
0.000284312
0.000284312
8.44094e-05
8.44094e-05
0.000357499
0.000357499
0.00035632
0.00035632
0.000356655
0.000356655
0.00027998
0.00027998
0.000356406
0.000356406
0.000358346
0.000358346
0.000300398
0.000300398
0.000273582
0.000273582
0.000357585
0.000357585
0.000353794
0.000353794
0.000282246
0.000282246
0.000358006
0.000358006
5.13765e-05
5.13765e-05
5.13765e-05
0.000355298
0.000355298
0.000359136
0.000359136
0.000355542
0.000355542
0.000357926
0.000357926
0.000356097
0.000356097
0.000338876
0.000338876
0.000359431
0.000359431
0.000356142
0.000356142
0.000279429
0.000279429
0.000346975
0.000346975
0.000355374
0.000355374
0.00035685
0.00035685
0.000355712
0.000355712
0.000283114
0.000283114
0.00034529
0.00034529
0.00035627
0.00035627
0.000357587
0.000357587
0.000356866
0.000356866
0.000356505
0.000356505
0.00028039
0.00028039
0.000356227
0.000356227
0.000356223
0.000356223
0.000278802