/*--------------------------------*- C++ -*----------------------------------*\
  =========                 |
  \\      /  F ield         | OpenFOAM: The Open Source CFD Toolbox
   \\    /   O peration     | Website:  https://openfoam.org
    \\  /    A nd           | Version:  8
     \\/     M anipulation  |
\*---------------------------------------------------------------------------*/
FoamFile
{
    version     2.0;
    format      ascii;
    class       volScalarField;
    location    "0.1";
    object      p;
}
// * * * * * * * * * * * * * * * * * * * * * * * * * * * * * * * * * * * * * //

dimensions      [1 -1 -2 0 0 0 0];

internalField   nonuniform List<scalar> 
1924
(
0
0.221454
-2.01878
-2.1042
-1.41903
-2.55341
-2.66149
-2.96081
-3.16784
-1.93251
-3.18256
-3.28077
-0.889464
-3.43866
-3.8265
-3.87279
-0.983734
-3.60749
0.728869
-3.58058
-0.458656
-2.1174
-1.11116
-3.76195
-2.20909
-2.75356
-2.78383
-3.07216
-1.27919
676.994
-1.14931
-2.34588
0.000183397
-1.02902
-1.57073
-1.15639
-2.3781
-1.49615
714.974
-1.10855
-2.51017
-0.723385
-2.61398
-1.02523
265.092
-0.988614
-86.0676
154.397
-0.0510633
0.0558546
-0.817375
-0.812385
-2.00092
-0.823828
-0.998213
-1.77338
-1.7979
136.337
3.8468
-3.47446
-0.986406
-3.77881
-0.927919
888.501
-0.685131
65.0906
-3.73601
-1.27839
-1.23771
-0.863364
-0.707017
-3.84482
828.639
568.73
501.275
-1.16394
70.544
419.369
257.025
-0.900916
-3.72785
-2.91378
705.37
-0.566323
0.486311
-1.33111
4.10431
-3.71121
-0.290268
-0.58803
-3.58828
-3.03449
-1.16972
-1.44369
-0.812144
-0.677712
11.2239
-3.9232
-3.34264
-0.976454
-1.89539
-0.738884
-3.29511
-3.13757
-1.53129
190.242
-1.77316
-1.5
-3.51246
-1.43844
17.0661
-1.45576
-1.57102
715.956
265.778
-0.234194
-1.99873
-4.01046
-1.59586
145.906
1.16873
-44.0127
-0.453369
-0.352869
-3.82625
-1.74579
-1.23535
334.705
-1.56806
1204.17
26.5098
-1.9125
-1.17966
654.318
-0.883349
-1.70074
-1.6337
-1.61291
-3.72104
-1.62587
6.01829
-3.75612
-547.352
0.022219
-2.21893
1284.65
-1.58975
-0.880675
-3.65733
-1.57537
866.3
178.794
-1.17521
-2.10155
-2.37034
-1.83151
-21.3342
-1.72582
-1.52334
698.637
675.605
-1.20447
-2.23716
1.50505
981.109
-1.79959
-1.99953
-38.6892
161.068
-1.72085
-0.501313
-2.55954
153.406
-3.25065
-1.16499
-1.58268
733.683
-0.826973
-1.11837
-2.40896
-2.02355
-4.08793
403.682
-2.07992
-3.15407
2.42679
-1.25328
-2.24628
89.4413
549.215
-1.53963
-2.69886
0.313315
-2.5449
-2.25112
148.621
-2.46655
-1.66677
-1.80215
-1.62352
0.477848
0.489697
-1.96063
-2.83277
-0.920447
-2.09872
-2.68016
-1.21063
-1.02778
-1.02444
-143.065
-1.84732
-3.69549
-2.32418
-2.31696
270.829
-3.70544
-1.62827
-2.80661
305.755
-1.771
640.505
-2.05863
-3.69608
-3.00055
-2.53374
-3.20748
43.8744
-2.49218
-1.7027
-1.3342
-3.50574
-1.88157
-0.923453
-2.68219
929.333
-3.82596
-2.9237
-2.21668
53.7913
-4.21893
-2.03683
-3.83825
-1.29515
114.756
-0.957726
-3.10449
0.842848
375.428
90.2449
30.1094
215.96
-2.5591
-1.99129
93.8702
-3.75134
-2.84346
-2.05438
-1.8569
-3.0378
-2.00876
-2.32073
-3.29975
287.659
-2.42713
489.048
-0.834521
177.755
-1.07872
-52.6488
-1.66211
881.276
-0.641678
-2.25961
-3.5784
-3.85157
-3.21791
-2.74593
-2.1211
-1.82952
1.08322
632.603
-3.5074
-2.7211
1.48906
515.691
-0.667376
580.221
-3.13173
-2.1115
-2.47251
656.977
-2.89188
-3.83938
-0.0270317
1007.4
-3.77995
-1.2675
230.159
-3.86154
918.6
-2.2528
-3.978
-3.84778
-3.2899
-2.46555
-0.868811
-3.99833
-2.12652
397.076
-1.07595
-1.44356
-2.78213
-2.02407
36.3971
-0.876206
-2.08978
-3.23489
-2.56803
-2.24502
555.006
-1.73676
-2.39912
969.295
-2.68262
-1.79509
-2.25003
-2.32929
-0.815846
-5.09995
-1.90469
-3.8054
-1.96324
-3.42737
336.017
-2.9529
-3.56907
-2.70962
-2.9371
-2.51374
0.047531
832.198
-2.23218
-1.34887
-3.86859
-3.99121
-0.874592
-3.9579
-1.4101
-2.54516
-2.64243
-149.429
1006.04
-3.95194
-1.01828
50.3285
-24.9549
-3.31105
-2.07212
-0.570814
-3.0942
-3.91737
-3.92862
-3.71322
-2.56772
-2.65666
-2.16222
-1.69745
-2.99194
-2.79454
-4.04003
-2.32024
-2.28079
-4.28386
-3.07199
-0.62937
-3.95772
-3.9115
-2.4372
-4.03386
-4.05484
98.8741
-2.32234
-2.47539
-1.85669
-4.08661
394.389
-3.79227
-2.98523
-2.75485
894.998
-2.03524
-2.46216
-3.93654
-2.94807
-1.51682
-2.852
-2.37075
-3.42311
-4.06894
1266.59
198.752
-1.32658
-1.25963
27.1793
-3.6931
-4.00423
-4.00667
-2.15388
-2.78123
-3.15344
-1.97481
-3.41586
-2.88761
-3.13854
-3.89503
-3.75815
-4.01573
-1.458
2.43793
-3.97636
-1.76818
-3.94262
-1.13508
-2.63851
-4.03049
35.6094
713.729
-2.23515
-3.2906
-3.77205
-3.63863
-3.42859
-1.85023
-3.02436
-3.2131
-4.01333
-0.933332
-2.99216
-2.57128
-1.92851
-3.05706
-2.54554
1091.32
-4.14646
383.481
-3.2904
249.966
-2.53235
-3.9164
-4.0303
-2.17221
-2.69718
-4.56652
-2.98617
-2.67218
-4.05273
-4.05151
-1.79215
-4.18432
1.89881
-2.43824
-0.937292
-1.66326
-1.40131
-3.98703
-4.12437
-3.19172
-3.11445
393.881
-2.84643
-2.04712
507.011
-4.05654
-1.73989
3.33269
874.281
-3.46976
-4.21687
-4.20558
-3.36398
-3.16294
-3.74617
-4.19584
-2.37352
-2.77783
-3.26601
-4.41129
-3.48588
17.3087
-0.888265
-3.41249
-1.98609
-1.89141
-4.08311
-3.97912
-4.23805
-3.89297
-3.19473
1009.44
-4.04704
-4.10317
-1.88312
-2.64271
-1.12257
-4.03344
-4.08422
-3.05424
-2.24552
-4.09551
58.0044
-3.95422
-3.96473
-2.76243
-4.10317
-4.17452
-2.57675
-2.7398
-3.20771
-4.25751
-1.8644
-4.13274
-4.25758
-4.0826
-2.90879
-2.87848
354.145
-0.980337
-2.98508
-3.33186
-1.67434
-3.54745
-2.18289
-1.29043
-1.37737
-4.31317
-3.21804
-1.81523
-0.994844
-2.84839
-2.44607
979.94
-0.872453
109.562
-4.06072
-3.4725
666.451
981.125
-4.33302
-4.56984
-3.40142
-3.87612
-4.27611
-2.05772
-3.2611
-1.35752
-1.0332
-0.75995
1093.07
824.1
-2.78099
-1.80393
-1.25946
-3.9467
-1.95154
-1.45554
-4.50616
-3.42509
562.733
-2.38192
-4.0535
-3.61753
-3.19131
-4.08544
214.057
-4.29385
-1.14004
-1.22278
-4.1567
-1.50065
-2.64818
-4.3673
-3.30349
-4.15596
-0.62432
-0.91198
-4.13122
-1.28056
-3.97399
872.799
-3.05386
-1.99649
0.249158
-0.656424
-0.796758
-4.12382
-4.36416
78.3471
-4.38362
-1.61655
-0.502093
-4.1783
-3.38309
1033.05
-2.2544
-3.63039
-2.94821
1.38833
-1.51618
-1.23884
-2.98573
-4.22342
-1.20412
5.63082
-2.58281
-4.40275
-2.9705
-1.44775
-0.506263
1032.51
-4.15604
-3.93714
-3.50261
-2.85117
-3.35363
409.063
-0.99962
-4.4217
-3.08483
-1.32814
-4.38611
-3.46649
42.5121
-1.49139
-2.1917
-0.470021
-3.3966
1120.88
-3.60662
-4.14109
-3.93109
-4.06946
-2.45303
-3.25855
-4.08464
-4.23786
-2.78476
-4.4789
-3.67874
-1.91754
-1.87306
-4.13931
-1.75706
-3.11233
-1.05307
-4.27708
-1.68365
6.214
-3.18994
-1.3973
-1.53252
-0.867895
263.81
-4.05864
-4.34694
981.783
-3.05439
-4.43951
-2.06639
-2.38912
-2.65314
-3.57116
-0.907237
-3.10051
-4.29311
-4.02052
-3.38939
-4.40316
-0.734855
-1.1698
-4.1973
-4.24086
-4.52034
-4.50241
-2.98718
-3.41042
-4.48439
1446.01
-4.23731
-0.916497
836.062
-3.52738
-3.49663
-3.46235
-1.81247
-4.26528
-1.2307
62.4638
-2.58819
-2.85412
-3.94959
-1.43416
-3.60046
-1.20371
-0.588383
-3.67033
-4.05519
-3.39345
-4.20911
-2.26181
-2.00454
-0.778185
-4.12454
1492.43
-3.25725
-3.1493
-4.26193
-1.62392
-4.31764
1.80504
114.097
-4.55103
-4.01705
-1.01608
-4.45701
-0.626633
-0.765299
-0.429877
-1.42566
-4.19382
-4.33129
-1.35923
1180.74
-2.7883
-4.572
-3.18953
-4.55396
-3.81263
-4.58887
-1.49814
-0.629897
-4.46845
-3.83949
-0.463734
-3.43079
1097.44
-2.45901
-1.07287
-2.19895
-4.18013
-3.05547
-4.2195
-3.47876
1202.15
1134.42
-3.17124
723.33
-0.472146
1493.7
-4.60598
512.979
-4.53777
-4.6092
-4.09268
-2.98896
-1.18905
-3.45952
-2.65756
-0.86861
-3.66495
-4.56861
-3.59599
1134.49
-4.24837
-1.27937
-4.31743
-2.39517
-3.39149
-0.920588
-4.11171
-1.3138
2.59843
-3.54466
-1.36428
-3.64766
355.575
-4.47173
-3.80293
-4.35943
1026.33
-1.25148
-1.6904
-4.31141
-4.3173
-2.85697
-4.08008
-4.28091
-0.995315
-3.87403
-1.88046
-0.931791
-1.49435
-3.25676
881.871
-3.64737
-4.41723
1148.72
-4.6232
-4.45397
-2.59287
222.146
-4.31111
1111.44
-0.38066
-2.07322
-1.02725
-4.71599
-0.718766
-3.18975
-1.69287
-1.43958
-3.30773
-4.43229
-0.76776
-4.67497
-4.2937
-2.79155
-4.69171
-4.52296
-1.08504
-4.58529
-3.86658
-2.26783
-3.66095
-3.05683
-3.59278
10.9204
-4.7737
-4.24285
1.34948
-3.66143
-0.337351
-3.79746
-3.45769
-11.7371
-1.62972
-3.86637
-2.99082
-4.73555
-1.81896
-3.57086
-4.65969
-0.868412
-4.0721
-4.64041
-4.23647
-1.50352
-2.46398
-0.561769
61.7983
-4.76071
-4.48971
-4.30496
564.87
-1.25474
-4.44099
-0.609443
-3.39037
-0.923337
-1.20471
-4.22981
-2.01097
-1.06507
-3.6052
-2.66135
673.073
-3.76311
-1.11398
-0.887542
-4.00663
1042.8
-2.20473
-4.79039
406.8
-4.27425
-3.2568
-4.50961
-3.95945
-4.72858
-4.74389
-2.85954
-4.0807
1.7812
-4.67826
-4.41773
-4.37718
-4.39844
-4.75247
-1.31763
-4.59928
-1.03509
279.697
-2.40011
-0.395761
-3.65805
-3.19034
-4.46057
-0.708301
-3.86146
-4.51311
-3.79327
828.77
-4.37344
-1.07384
-0.443899
-4.64578
-0.76099
-3.59055
-2.59678
1.83692
98.2851
-4.65513
-3.05823
1521.79
-4.38044
-1.09425
-3.9904
-3.3638
-3.65223
-3.9978
-2.79437
-4.80807
-3.45658
-1.69542
-4.42949
-1.24449
-4.90421
-1.88589
-4.06779
-4.71444
-3.70015
-1.46441
-4.37343
-0.980434
-0.298619
-4.2941
-2.99256
-4.49771
-0.868623
-4.76889
-1.44367
-3.38982
1043.21
-2.07845
-4.88106
1.36438
-1.13246
-0.560164
-0.925633
-4.92074
1206.16
-4.28874
-2.27251
-3.57736
-0.543211
-4.63327
-4.61762
-3.25713
-3.85769
-0.594996
-3.80697
-2.46794
17.7993
-3.79013
-4.66868
981.418
-4.40659
-3.99287
-4.86547
-1.33594
-4.82491
-4.06097
-1.25734
-2.66445
-3.65598
-4.85085
-3.19107
1317.01
1212.2
-1.82376
-1.95626
-4.70162
-4.24577
-2.86174
-2.01573
-4.67469
-1.6339
-4.94942
-4.96144
-1.04387
-3.58903
-0.700972
-1.50751
-4.9776
-2.20915
-1.31994
-4.78333
-3.95635
-4.48478
1368.62
-3.05954
-0.756408
-4.93767
-4.41935
-4.45367
-4.47826
-4.48717
-4.19973
-2.40396
-3.45596
-4.55195
-4.80779
-4.50546
-2.13597
-3.68313
-4.05642
-4.62211
-2.5999
-4.83743
504.535
886.349
1193.14
-1.32036
-4.46478
-4.93414
-0.371623
-0.423578
-2.7967
-3.99246
1162.74
-3.38963
-1.07134
-4.83985
-3.68446
-4.91938
-4.99408
-3.85484
-4.47073
-4.05653
-3.98901
-4.6901
-2.99408
-4.63563
-0.869318
-3.25759
-3.90297
-3.48836
-3.78781
-4.69131
-4.90579
-1.88983
-4.19153
-1.13415
-2.08228
1165.67
-0.930358
-3.91035
-4.79674
-3.65455
-4.4741
-0.529864
-4.95361
-0.584629
-3.19181
-2.27602
-4.26095
-4.82531
-0.267891
-5.10804
-2.47095
-3.58804
512.527
-4.61225
-2.66685
2.0109
-0.881582
-1.69896
-4.33846
-4.47792
-5.01043
-4.46367
-2.8635
-5.09226
353.785
669.025
-3.45567
-4.67986
-4.85343
3.13602
-4.8934
-0.695942
-2.01915
-3.06065
-1.44664
267.151
-4.05306
-0.656614
-1.25916
-4.18711
-5.07055
-3.98604
-0.753616
-5.05598
-0.384805
-0.344718
-3.48063
-0.939153
-3.38966
-4.60119
-2.21237
-3.85273
-4.25454
-0.947553
-5.12389
-4.56251
-4.55186
-1.42171
-4.81445
-2.4068
71.7428
-4.22188
-5.16541
-5.04189
-4.96822
-2.60225
-1.82718
-3.78614
-4.53088
-4.56905
-0.408862
-2.7985
-5.18132
-0.292549
-0.354176
-1.07241
-3.25807
5.40505
-3.6536
-2.99531
827.901
2.6471
-4.88222
-4.58588
-5.02533
-5.15005
-4.86675
-4.66429
-0.873291
-5.02893
1242.47
-4.60358
-4.39191
-0.251519
-3.67967
-3.58744
2.48611
-0.520274
-4.67084
-4.61049
-3.19248
-4.71444
-1.63673
-1.32222
-0.577287
-3.59604
-5.1389
-4.80482
1384.19
479.891
-5.12436
-5.11016
-1.13494
-5.13937
-1.51041
-4.59372
-2.08489
-0.245538
-3.45559
-4.25058
-4.0504
-3.64807
-2.27844
-4.18362
1324.71
1032.77
-5.2961
1629.37
-3.9838
-2.47307
-0.885437
-5.09703
-4.98187
-4.87224
-1.8925
-5.01714
-2.66858
-3.85122
1633.85
-4.56789
-5.28098
-2.8648
-4.87829
-0.692801
-5.19684
-1.39652
1219.4
-5.31137
-3.38981
-4.65175
-0.671877
-0.911583
-4.38442
-3.785
-3.06151
1251.59
-5.03903
-0.75259
-0.948156
-0.567735
-3.87854
-4.61993
-3.65301
-4.45289
-4.70271
-5.35411
-5.33926
-5.36934
-1.70121
-5.08499
-2.02113
-4.81991
-5.26048
-5.00654
-0.398223
-0.341497
-5.15384
-3.25852
-4.79635
-2.21434
1126.17
-4.66295
-2.40863
-5.32879
-2.60385
-5.23288
1190.98
-4.61174
1485.96
1631.21
-4.86343
-5.24656
-2.79981
-0.216703
1534.06
-3.58713
-0.696059
-1.26023
-2.99633
-1.82908
-4.74725
-4.24747
-4.60596
-0.5135
-1.0727
-4.67781
-4.04842
-5.21153
-4.18093
-1.44859
-0.572197
-0.847296
-5.2203
-5.47043
-0.229186
-5.31481
-4.22766
-4.38051
-5.32628
-4.99711
-3.98219
-5.45072
-3.19321
-5.30096
1701.85
-5.07409
-0.760627
-5.48511
-5.3843
-4.65233
-3.45566
563.799
-4.44736
-3.8502
1711.5
-4.99505
-5.43738
-4.75112
-5.2882
403.678
-1.638
-5.49989
137.467
296.307
-1.2545
-3.78427
-4.74495
377.516
-0.885441
-5.51892
-5.06434
-0.703041
-5.54354
-5.42383
-5.50558
-3.39026
-4.78897
720.911
-5.52895
-4.78455
-1.13472
-5.20878
-5.05203
-1.32273
-4.85571
-4.58273
-0.755561
-4.69092
-0.691617
-5.16746
0.332196
12.2661
1475.91
-1.51174
-5.64153
-0.191472
-4.98881
-5.49176
1184.44
-5.27643
-3.65274
-5.55827
-4.83944
-0.901617
-3.43689
-5.62883
-5.51438
-4.56394
2.63442
2.56574
-0.390584
1661.89
-5.69749
-0.332369
-4.24511
-5.34047
-4.37746
-5.41154
-5.39867
-5.05571
1.92236
-4.78112
963.53
882.976
-5.22516
-5.57281
1789.77
-3.48232
-4.44389
-0.947273
-4.17894
-1.89265
-0.697943
-2.08535
-5.19839
-0.217207
1621.16
1561.31
-2.27916
-5.00746
1854.87
-5.4793
-4.04704
1324.89
-2.47399
-5.61481
-2.66965
-4.66479
2.31874
-2.86597
-3.58732
2.11598
-5.68231
-5.70946
1427.03
-3.74957
-3.06276
-4.64403
-0.50883
-5.26575
-4.57669
-5.66098
-3.98112
-5.68952
-5.18913
-1.78049
-4.98157
-1.70105
-5.67514
1503.68
-5.40024
-4.8163
-4.84905
-0.569119
-1.47158
-0.173013
1829.01
-3.25981
-4.89315
-4.86511
-5.04815
-3.84963
-5.46773
-0.759781
-5.6027
-5.25618
-4.08037
-4.77913
-5.52826
-0.509483
-5.82316
-4.6238
-5.66986
-5.70375
-5.58688
-5.18097
-1.51065
-4.84114
-4.44123
-1.32138
-5.39001
-5.06535
-4.69431
-5.71958
-4.89413
-5.41215
-3.45697
-5.74774
-4.63963
-4.37516
-1.13299
-4.97536
-3.78424
-5.73343
-5.2477
1229.43
-4.77322
-4.69927
-4.57333
-5.18035
-5.04162
-5.76203
1705.55
-5.35389
1840.46
-5.23795
-0.572017
-5.45722
1827.93
-5.82625
-5.80288
-4.41598
-4.24343
1969.52
-4.96938
-5.5915
1890.35
-0.208444
-0.159479
-1.18922
-5.17386
-4.93978
-4.91444
1658.7
-4.91936
-4.96365
-0.945162
-5.38088
-0.32581
-5.16776
-4.83513
-5.65835
-5.03608
-4.17758
-0.385175
-4.69442
-3.65407
-5.24027
-4.76854
-4.83407
-4.63672
1742.89
-1.82859
-5.71748
1504.16
-2.02094
-5.37283
-2.21442
-5.23386
-5.54145
-2.40895
-5.44777
-5.791
-2.60437
-5.16264
-4.9817
-0.757501
-2.80051
-2.99717
-4.57078
-1.83945
-5.22844
-5.60022
-4.04621
-5.03041
-5.77602
1303.74
2.19509
1.93173
-3.19417
-4.43929
-5.58138
-5.36582
-5.87398
-4.96375
2033.09
-5.84566
-4.83157
-5.35982
-5.85939
-0.569752
-0.506897
1684.5
-3.39132
-5.88846
-5.4394
-0.149565
-4.93534
-5.15809
-5.3548
-5.07808
-4.76579
-1.63722
-1.44728
-5.64791
-5.43207
-1.25822
-5.42469
-3.85097
-5.22395
-3.98089
1971.56
-5.88288
-5.8708
-5.77988
-0.570529
-4.79584
-5.36642
-5.42042
-5.42575
-5.07758
-5.0909
-4.63458
-5.19311
-5.02599
-1.06998
-5.20552
-5.14122
-4.37355
-0.318751
-5.05892
-3.58847
-5.2503
1307.81
1383.13
1686.22
-5.12722
-4.96014
-5.35069
-5.55148
-5.85841
-5.55742
2065.21
-0.202053
-4.64759
-5.41604
-5.37832
-5.55365
-4.82927
-5.10945
-5.54653
-5.90265
-4.56897
-4.6947
-4.68032
-4.67957
-0.882149
-5.57234
-4.99656
-5.21988
-5.0386
-4.24239
-5.61257
-5.56436
-5.73047
1931.17
-5.26265
-3.78546
-0.69436
-5.15416
-5.94299
-0.142328
-5.38985
-5.61149
-5.61675
-5.89805
-5.02331
-5.84704
-5.76982
-5.43642
-5.09195
-5.91433
-5.15439
-4.76381
-5.92843
-5.02094
-5.54251
1564.34
-5.34732
-5.78942
-5.41254
-4.84144
-4.43808
-5.27424
-0.381435
-0.506852
-5.4475
1871.08
-5.63854
-5.40086
-5.24646
-5.23226
-5.6072
-5.62299
-5.95735
-5.29944
-5.56486
-4.95803
-5.28646
-5.21681
-5.25702
2068.85
2116.74
-5.53939
-5.21808
-5.31086
-0.321225
-1.44933
-5.74028
-5.8366
-5.57523
-5.74243
-5.73547
-5.4582
-4.04755
-3.98217
-5.60381
-5.40975
-5.15159
-4.63322
-4.9463
-5.10291
-4.17718
-5.31885
-5.74609
-5.73162
-5.53714
-0.382297
-5.34464
-5.5849
-4.82778
1875.66
1749.12
-5.62383
-5.60134
-5.42175
-5.91635
-5.97137
-5.63406
-5.41145
-5.63024
-5.47771
-4.56832
-5.4865
-5.4681
-5.72873
-5.26519
-5.0217
-4.68765
-4.37301
-5.80038
-5.42978
-5.80555
-5.76084
-5.82723
-5.59387
-4.80364
-5.64342
-5.49088
-5.21497
-5.80192
-5.7962
-5.72685
-5.40758
-4.43941
-4.63454
-4.56972
-5.75319
-0.137052
-5.76265
-5.79296
-5.59974
-5.65207
-5.60767
-5.43448
-5.99753
-5.92931
-5.94128
-5.75293
-5.66889
-5.81172
-5.79073
-5.66721
-5.77101
-5.6021
-4.76306
-5.60973
-5.78957
-5.72608
-5.53554
-5.77844
-5.78508
-4.95718
-5.8133
-5.65986
-5.15064
-5.79069
-5.85293
-5.34342
-4.68043
-5.97522
-6.04123
-5.97971
-5.79076
-5.84629
1941.93
2074.05
-6.04345
2137.94
-5.98085
2137.97
-4.9586
-5.02294
-5.81893
-4.82907
-4.76448
-4.37438
-5.21609
-5.15202
-4.17851
-4.24373
-5.96124
-6.02837
-5.98484
-6.03567
-5.96903
-6.01951
-5.95198
-6.04458
-5.79009
-5.72666
-5.59983
-5.53639
-5.34466
-5.40842
-6.00916
-5.85206
344.085
-5.83972
-5.82336
-5.83212
-0.197378
-0.13317
1452.79
1.91937
1270.68
-0.130349
-0.319497
-1.79643
-0.746192
-0.382678
-0.194493
0.424586
252.95
1291.35
1195.27
-0.193006
1174.71
-1.8577
-16.9645
1377.28
-1.83594
854.68
-1.08434
-1.51816
1366.58
-0.50149
-0.631396
-70.8572
-46.3147
-1426.48
-38.0246
-553.702
-81.0093
1287.3
1219.52
1278.98
2.6776
2.80378
2.75326
1104.08
-1.49829
-1.79418
2.59042
-2.72455
-2.37749
1344.27
1401.59
307.673
1.65458
233.791
2.32513
35.7125
33.1058
2.55821
253.101
-49.7943
29.8403
-402.599
-40.2422
-59.4585
59.2859
47.5634
1354.09
-1.56205
2.5525
163.642
-23.0774
2.68374
-2.16828
2.59424
-1.04456
2.58712
-1.54184
2.50281
-0.804561
-0.980494
2.75979
-0.65807
2.41728
-1.81406
2.50695
-4.13373
-1.40136
-1.6014
-0.435357
2.23567
-4.12756
2.38094
-2.40725
2.48058
-0.942993
-1.58254
-3.83344
-7.08326
-1.48719
59.2389
-1.64969
-4.14128
-0.908407
-4.13795
-1.61507
-4.32185
-1.66734
-4.37446
2.1217
-1.69353
1.97192
2.48452
2.49212
-10.5626
-1.63181
47.4298
40.417
-3.99988
)
;

boundaryField
{
    patch0
    {
        type            calculated;
        value           nonuniform List<scalar> 
4010
(
4.44089e-16
4.44089e-16
0.221454
0.221454
-2.01878
-2.01878
-2.1042
-2.1042
-1.41903
-1.41903
-2.55341
-2.55341
-2.66149
-2.66149
-2.96081
-2.96081
-3.16784
-3.16784
-1.93251
-1.93251
-3.18256
-3.18256
-3.28077
-3.28077
-0.889464
-0.889464
-3.43866
-3.43866
-3.8265
-3.8265
-3.87279
-3.87279
-0.983734
-0.983734
-3.60749
-3.60749
0.728869
0.728869
-3.58058
-3.58058
-0.458656
-0.458656
-2.1174
-2.1174
-1.11116
-1.11116
-3.76195
-3.76195
-2.20909
-2.20909
-2.75356
-2.75356
-2.78383
-2.78383
-3.07216
-3.07216
-1.27919
-1.27919
676.994
676.994
-1.14931
-1.14931
-2.34588
-2.34588
0.000183397
0.000183397
-1.02902
-1.02902
-1.57073
-1.57073
-1.15639
-1.15639
-2.3781
-2.3781
-1.49615
-1.49615
714.974
714.974
-1.10855
-1.10855
-2.51017
-2.51017
-0.723385
-0.723385
-2.61398
-2.61398
-1.02523
-1.02523
265.092
265.092
-0.988614
-0.988614
-86.0676
-86.0676
154.397
154.397
-0.0510633
-0.0510633
0.0558546
0.0558546
-0.817375
-0.817375
-0.812385
-0.812385
-2.00092
-2.00092
-0.823828
-0.823828
-0.998213
-0.998213
-1.77338
-1.77338
-1.7979
-1.7979
136.337
136.337
3.8468
3.8468
-3.47446
-3.47446
-0.986406
-0.986406
-3.77881
-3.77881
-0.927919
-0.927919
888.501
888.501
-0.685131
-0.685131
65.0906
65.0906
-3.73601
-3.73601
-1.27839
-1.27839
-1.23771
-1.23771
-0.863364
-0.863364
-0.707017
-0.707017
-3.84482
-3.84482
828.639
828.639
568.73
568.73
501.275
501.275
-1.16394
-1.16394
70.544
70.544
419.369
419.369
257.025
257.025
-0.900916
-0.900916
-3.72785
-3.72785
-2.91378
-2.91378
705.37
705.37
-0.566323
-0.566323
0.486311
0.486311
-1.33111
-1.33111
4.10431
4.10431
-3.71121
-3.71121
-0.290268
-0.290268
-0.58803
-0.58803
-3.58828
-3.58828
-3.03449
-3.03449
-1.16972
-1.16972
-1.44369
-1.44369
-0.812144
-0.812144
-0.677712
-0.677712
11.2239
11.2239
-3.9232
-3.9232
-3.34264
-3.34264
-0.976454
-0.976454
-1.89539
-1.89539
-0.738884
-0.738884
-3.29511
-3.29511
-3.13757
-3.13757
-1.53129
-1.53129
190.242
190.242
-1.77316
-1.77316
-1.5
-1.5
-3.51246
-3.51246
-1.43844
-1.43844
17.0661
17.0661
-1.45576
-1.45576
-1.57102
-1.57102
715.956
715.956
265.778
265.778
-0.234194
-0.234194
-1.99873
-1.99873
-4.01046
-4.01046
-1.59586
-1.59586
145.906
145.906
1.16873
1.16873
-44.0127
-44.0127
-0.453369
-0.453369
-0.352869
-0.352869
-3.82625
-3.82625
-1.74579
-1.74579
-1.23535
-1.23535
334.705
334.705
-1.56806
-1.56806
1204.17
1204.17
26.5098
26.5098
-1.9125
-1.9125
-1.17966
-1.17966
654.318
654.318
-0.883349
-0.883349
-1.70074
-1.70074
-1.6337
-1.6337
-1.61291
-1.61291
-3.72104
-3.72104
-1.62587
-1.62587
6.01829
6.01829
-3.75612
-3.75612
-547.352
-547.352
-517.736
0.022219
0.022219
0.0529586
-2.21893
-2.21893
1284.65
1284.65
-1.58975
-1.58975
-0.880675
-0.880675
-3.65733
-3.65733
-1.57537
-1.57537
866.3
866.3
178.794
178.794
264.802
-1.17521
-1.17521
-2.10155
-2.10155
-2.37034
-2.37034
-1.83151
-1.83151
-21.3342
-21.3342
-1.72582
-1.72582
-1.52334
-1.52334
698.637
698.637
675.605
675.605
-1.20447
-1.20447
-2.23716
-2.23716
1.50505
1.50505
981.109
981.109
-1.79959
-1.79959
-1.99953
-1.99953
-38.6892
-38.6892
161.068
161.068
-1.72085
-1.72085
-0.501313
-0.501313
-2.55954
-2.55954
153.406
153.406
-3.25065
-3.25065
-1.16499
-1.16499
-1.58268
-1.58268
733.683
733.683
-0.826973
-0.826973
-1.11837
-1.11837
-2.40896
-2.40896
-2.02355
-2.02355
-4.08793
-4.08793
403.682
403.682
-2.07992
-2.07992
-3.15407
-3.15407
2.42679
2.42679
-1.25328
-1.25328
-2.24628
-2.24628
89.4413
89.4413
549.215
549.215
-1.53963
-1.53963
-2.69886
-2.69886
0.313315
0.313315
-2.5449
-2.5449
-2.25112
-2.25112
148.621
148.621
242.174
-2.46655
-2.46655
-1.66677
-1.66677
-1.80215
-1.80215
-1.62352
-1.62352
0.477848
0.477848
0.489697
0.489697
-1.96063
-1.96063
-2.83277
-2.83277
-0.920447
-0.920447
-2.09872
-2.09872
-2.68016
-2.68016
-1.21063
-1.21063
-1.02778
-1.02778
-1.02444
-1.02444
-0.9961
-143.065
-143.065
-1.84732
-1.84732
-3.69549
-3.69549
-2.32418
-2.32418
-2.31696
-2.31696
270.829
270.829
-3.70544
-3.70544
-1.62827
-1.62827
-2.80661
-2.80661
305.755
305.755
-1.771
-1.771
640.505
640.505
-2.05863
-2.05863
-3.69608
-3.69608
-3.00055
-3.00055
-2.53374
-2.53374
-3.20748
-3.20748
43.8744
43.8744
-2.49218
-2.49218
-1.7027
-1.7027
-1.3342
-1.3342
-3.50574
-3.50574
-1.88157
-1.88157
-0.923453
-0.923453
-2.68219
-2.68219
929.333
929.333
957.672
-3.82596
-3.82596
-2.9237
-2.9237
-2.21668
-2.21668
53.7913
53.7913
147.532
-4.21893
-4.21893
-2.03683
-2.03683
-3.83825
-3.83825
-1.29515
-1.29515
114.756
114.756
-0.957726
-0.957726
-3.10449
-3.10449
0.842848
0.842848
375.428
375.428
90.2449
90.2449
30.1094
30.1094
215.96
215.96
-2.5591
-2.5591
-1.99129
-1.99129
93.8702
93.8702
-3.75134
-3.75134
-2.84346
-2.84346
-2.05438
-2.05438
-1.8569
-1.8569
-3.0378
-3.0378
-2.00876
-2.00876
-2.32073
-2.32073
-3.29975
-3.29975
287.659
287.659
-2.42713
-2.42713
489.048
489.048
-0.834521
-0.834521
177.755
177.755
-1.07872
-1.07872
-52.6488
-52.6488
-1.66211
-1.66211
881.276
881.276
-0.641678
-0.641678
-2.25961
-2.25961
-3.5784
-3.5784
-3.85157
-3.85157
-3.21791
-3.21791
-2.74593
-2.74593
-2.1211
-2.1211
-1.82952
-1.82952
1.08322
1.08322
632.603
632.603
699.391
-3.5074
-3.5074
-2.7211
-2.7211
1.48906
1.48906
515.691
515.691
-0.667376
-0.667376
580.221
580.221
-3.13173
-3.13173
-2.1115
-2.1115
-2.47251
-2.47251
656.977
656.977
-2.89188
-2.89188
-3.83938
-3.83938
-0.0270317
-0.0270317
1007.4
1007.4
-3.77995
-3.77995
-1.2675
-1.2675
230.159
230.159
-3.86154
-3.86154
918.6
918.6
1008.38
-2.2528
-2.2528
-3.978
-3.978
-3.84778
-3.84778
-3.2899
-3.2899
-2.46555
-2.46555
-0.868811
-0.868811
-3.99833
-3.99833
-2.12652
-2.12652
397.076
397.076
-1.07595
-1.07595
-1.44356
-1.44356
-2.78213
-2.78213
-2.02407
-2.02407
36.3971
36.3971
-0.876206
-0.876206
-2.08978
-2.08978
-3.23489
-3.23489
-2.56803
-2.56803
-2.24502
-2.24502
555.006
555.006
-1.73676
-1.73676
-2.39912
-2.39912
969.295
969.295
-2.68262
-2.68262
-1.79509
-1.79509
-2.25003
-2.25003
-2.32929
-2.32929
-0.815846
-0.815846
-5.09995
-5.09995
-1.90469
-1.90469
-3.8054
-3.8054
-1.96324
-1.96324
-3.42737
-3.42737
336.017
336.017
-2.9529
-2.9529
-3.56907
-3.56907
-2.70962
-2.70962
-2.9371
-2.9371
-2.51374
-2.51374
0.047531
0.047531
832.198
832.198
-2.23218
-2.23218
-1.34887
-1.34887
-3.86859
-3.86859
-3.99121
-3.99121
-0.874592
-0.874592
-3.9579
-3.9579
-1.4101
-1.4101
-2.54516
-2.54516
-2.64243
-2.64243
-149.429
-149.429
1006.04
1006.04
-3.95194
-3.95194
-1.01828
-1.01828
50.3285
50.3285
-24.9549
-24.9549
-3.31105
-3.31105
-2.07212
-2.07212
-0.570814
-0.570814
-3.0942
-3.0942
-3.91737
-3.91737
-3.92862
-3.92862
-3.71322
-3.71322
-2.56772
-2.56772
-2.65666
-2.65666
-2.16222
-2.16222
-1.69745
-1.69745
-2.99194
-2.99194
-2.79454
-2.79454
-4.04003
-4.04003
-2.32024
-2.32024
-2.28079
-2.28079
-4.28386
-4.28386
-3.07199
-3.07199
-0.62937
-0.62937
-3.95772
-3.95772
-3.9115
-3.9115
-2.4372
-2.4372
-4.03386
-4.03386
-4.05484
-4.05484
98.8741
98.8741
-2.32234
-2.32234
-2.47539
-2.47539
-1.85669
-1.85669
-4.08661
-4.08661
394.389
394.389
-3.79227
-3.79227
-2.98523
-2.98523
-2.75485
-2.75485
894.998
894.998
-2.03524
-2.03524
-2.46216
-2.46216
-3.93654
-3.93654
-2.94807
-2.94807
-1.51682
-1.51682
-1.48003
-2.852
-2.852
-2.37075
-2.37075
-3.42311
-3.42311
-4.06894
-4.06894
1266.59
1266.59
198.752
198.752
-1.32658
-1.32658
-1.25963
-1.25963
27.1793
27.1793
28.8709
-3.6931
-3.6931
-4.00423
-4.00423
-4.00667
-4.00667
-2.15388
-2.15388
-2.78123
-2.78123
-3.15344
-3.15344
-1.97481
-1.97481
-3.41586
-3.41586
-2.88761
-2.88761
-3.13854
-3.13854
-3.89503
-3.89503
-3.75815
-3.75815
-4.01573
-4.01573
-1.458
-1.458
2.43793
2.43793
-3.97636
-3.97636
-1.76818
-1.76818
-3.94262
-3.94262
-1.13508
-1.13508
-2.63851
-2.63851
-4.03049
-4.03049
35.6094
35.6094
713.729
713.729
-2.23515
-2.23515
-3.2906
-3.2906
-3.77205
-3.77205
-3.63863
-3.63863
-3.42859
-3.42859
-1.85023
-1.85023
-3.02436
-3.02436
-3.2131
-3.2131
-4.01333
-4.01333
-0.933332
-0.933332
-2.99216
-2.99216
-2.57128
-2.57128
-1.92851
-1.92851
-3.05706
-3.05706
-2.54554
-2.54554
1091.32
1091.32
-4.14646
-4.14646
383.481
383.481
420.409
-3.2904
-3.2904
249.966
249.966
-2.53235
-2.53235
-3.9164
-3.9164
-4.0303
-4.0303
-2.17221
-2.17221
-2.69718
-2.69718
-4.56652
-4.56652
-2.98617
-2.98617
-2.67218
-2.67218
-4.05273
-4.05273
-4.05151
-4.05151
-1.79215
-1.79215
-4.18432
-4.18432
1.89881
1.89881
-2.43824
-2.43824
-0.937292
-0.937292
-1.66326
-1.66326
-1.40131
-1.40131
-3.98703
-3.98703
-4.12437
-4.12437
-3.19172
-3.19172
-3.11445
-3.11445
393.881
393.881
-2.84643
-2.84643
-2.04712
-2.04712
507.011
507.011
-4.05654
-4.05654
-1.73989
-1.73989
3.33269
3.33269
874.281
874.281
-3.46976
-3.46976
-4.21687
-4.21687
-4.20558
-4.20558
-3.36398
-3.36398
-3.16294
-3.16294
-3.74617
-3.74617
-4.19584
-4.19584
-2.37352
-2.37352
-2.77783
-2.77783
-3.26601
-3.26601
-4.41129
-4.41129
-3.48588
-3.48588
17.3087
17.3087
-0.888265
-0.888265
-3.41249
-3.41249
-1.98609
-1.98609
-1.89141
-1.89141
-4.08311
-4.08311
-3.97912
-3.97912
-4.23805
-4.23805
-3.89297
-3.89297
-3.19473
-3.19473
1009.44
1009.44
-4.04704
-4.04704
-4.10317
-4.10317
-1.88312
-1.88312
-2.64271
-2.64271
-1.12257
-1.12257
-4.03344
-4.03344
-4.08422
-4.08422
-3.05424
-3.05424
-2.24552
-2.24552
-4.09551
-4.09551
58.0044
58.0044
-3.95422
-3.95422
-3.96473
-3.96473
-2.76243
-2.76243
-4.10317
-4.10317
-4.17452
-4.17452
-2.57675
-2.57675
-2.7398
-2.7398
-3.20771
-3.20771
-4.25751
-4.25751
-1.8644
-1.8644
-4.13274
-4.13274
-4.25758
-4.25758
-4.0826
-4.0826
-2.90879
-2.90879
-2.87848
-2.87848
354.145
354.145
-0.980337
-0.980337
-2.98508
-2.98508
-3.33186
-3.33186
-1.67434
-1.67434
-3.54745
-3.54745
-2.18289
-2.18289
-1.29043
-1.29043
-1.37737
-1.37737
-4.31317
-4.31317
-3.21804
-3.21804
-1.81523
-1.81523
-0.994844
-0.994844
-2.84839
-2.84839
-2.44607
-2.44607
979.94
979.94
-0.872453
-0.872453
109.562
109.562
-4.06072
-4.06072
-3.4725
-3.4725
666.451
666.451
981.125
981.125
-4.33302
-4.33302
-4.56984
-4.56984
-3.40142
-3.40142
-3.87612
-3.87612
-4.27611
-4.27611
-2.05772
-2.05772
-3.2611
-3.2611
-1.35752
-1.35752
-1.0332
-1.0332
-0.75995
-0.75995
1093.07
1093.07
824.1
824.1
-2.78099
-2.78099
-1.80393
-1.80393
-1.25946
-1.25946
-3.9467
-3.9467
-1.95154
-1.95154
-1.45554
-1.45554
-4.50616
-4.50616
-3.42509
-3.42509
562.733
562.733
-2.38192
-2.38192
-4.0535
-4.0535
-3.61753
-3.61753
-3.19131
-3.19131
-4.08544
-4.08544
214.057
214.057
-4.29385
-4.29385
-1.14004
-1.14004
-1.22278
-1.22278
-4.1567
-4.1567
-1.50065
-1.50065
-2.64818
-2.64818
-4.3673
-4.3673
-3.30349
-3.30349
-4.15596
-4.15596
-0.62432
-0.62432
-0.91198
-0.91198
-4.13122
-4.13122
-1.28056
-1.28056
-3.97399
-3.97399
872.799
872.799
-3.05386
-3.05386
-1.99649
-1.99649
0.249158
0.249158
-0.656424
-0.656424
-0.796758
-0.796758
-4.12382
-4.12382
-4.36416
-4.36416
78.3471
78.3471
-4.38362
-4.38362
-1.61655
-1.61655
-0.502093
-0.502093
-4.1783
-4.1783
-3.38309
-3.38309
1033.05
1033.05
-2.2544
-2.2544
-3.63039
-3.63039
-2.94821
-2.94821
1.38833
1.38833
-1.51618
-1.51618
-1.23884
-1.23884
-2.98573
-2.98573
-4.22342
-4.22342
-1.20412
-1.20412
5.63082
5.63082
-2.58281
-2.58281
-4.40275
-4.40275
-2.9705
-2.9705
-1.44775
-1.44775
-0.506263
-0.506263
1032.51
1032.51
-4.15604
-4.15604
-3.93714
-3.93714
-3.50261
-3.50261
-2.85117
-2.85117
-3.35363
-3.35363
409.063
409.063
-0.99962
-0.99962
-4.4217
-4.4217
-3.08483
-3.08483
-1.32814
-1.32814
-4.38611
-4.38611
-3.46649
-3.46649
42.5121
42.5121
-1.49139
-1.49139
-2.1917
-2.1917
-0.470021
-0.470021
-3.3966
-3.3966
1120.88
1120.88
-3.60662
-3.60662
-4.14109
-4.14109
-3.93109
-3.93109
-4.06946
-4.06946
-2.45303
-2.45303
-3.25855
-3.25855
-4.08464
-4.08464
-4.23786
-4.23786
-2.78476
-2.78476
-4.4789
-4.4789
-3.67874
-3.67874
-1.91754
-1.91754
-1.87306
-1.87306
-4.13931
-4.13931
-1.75706
-1.75706
-3.11233
-3.11233
-1.05307
-1.05307
-4.27708
-4.27708
-1.68365
-1.68365
6.214
6.214
-3.18994
-3.18994
-1.3973
-1.3973
-1.53252
-1.53252
-0.867895
-0.867895
263.81
263.81
-4.05864
-4.05864
-4.34694
-4.34694
981.783
981.783
-3.05439
-3.05439
-4.43951
-4.43951
-2.06639
-2.06639
-2.38912
-2.38912
-2.65314
-2.65314
-3.57116
-3.57116
-0.907237
-0.907237
-3.10051
-3.10051
-4.29311
-4.29311
-4.02052
-4.02052
-3.38939
-3.38939
-4.40316
-4.40316
-0.734855
-0.734855
-1.1698
-1.1698
-4.1973
-4.1973
-4.24086
-4.24086
-4.52034
-4.52034
-4.50241
-4.50241
-2.98718
-2.98718
-3.41042
-3.41042
-4.48439