/*--------------------------------*- C++ -*----------------------------------*\
  =========                 |
  \\      /  F ield         | OpenFOAM: The Open Source CFD Toolbox
   \\    /   O peration     | Website:  https://openfoam.org
    \\  /    A nd           | Version:  8
     \\/     M anipulation  |
\*---------------------------------------------------------------------------*/
FoamFile
{
    version     2.0;
    format      ascii;
    class       volScalarField;
    location    "0.1";
    object      p_rgh;
}
// * * * * * * * * * * * * * * * * * * * * * * * * * * * * * * * * * * * * * //

dimensions      [1 -1 -2 0 0 0 0];

internalField   nonuniform List<scalar> 
1924
(
2.01328
7.87779
-0.051933
0.511072
0.713574
-0.430423
-0.450696
-0.65001
-0.814916
-0.0588823
-0.725739
-0.749564
0.224469
-0.796852
-0.322074
-0.298931
0.220336
-0.892912
2.42761
-0.770214
0.525359
0.0316831
0.051207
-0.885762
0.0181573
-0.0346323
-0.0407073
-1.28057
0.403288
2284.31
0.0957094
0.00809918
1.41315
0.140187
0.154941
0.0345017
0.0112045
0.324422
2284.78
0.140596
-0.00482421
0.281046
-0.0173631
0.0328043
1774.88
0.662248
946.398
1827.99
1.09967
0.918018
-0.195001
0.318215
0.0388731
-0.285061
0.644867
0.113362
143.154
1711.01
744.449
-0.125976
-0.0198353
-0.277406
-0.0431255
2252.58
-0.241214
1568.63
-0.201026
0.0514925
0.468378
-0.147803
0.537764
-0.262843
2272.35
2289.24
2319.3
0.354971
1227.74
2324.28
2058.6
-0.100651
-1.01811
-0.0607861
2227.58
0.502729
1.83717
0.0408573
115.926
-0.333696
0.568611
0.600923
-0.190672
-0.0712663
0.529827
0.354288
0.43349
-0.309645
646.366
-1.11563
-0.114333
0.438367
0.0614502
0.443471
-0.119798
-0.0882684
0.31869
2367
0.183889
0.298713
-0.121062
0.361058
1151.83
0.347691
0.11008
2241.57
2124.87
0.789951
0.0122718
-0.296626
0.001734
2106.92
2.39916
100.937
0.41869
0.727847
-0.223519
0.2104
0.333459
2343.9
0.283557
1377.41
1241.88
0.0970757
0.32863
2230.65
0.34009
0.247232
0.250211
0.245866
-0.756335
0.0937297
481.02
-0.236253
811.205
1.43232
-0.101075
1608.3
0.261196
0.477468
-0.129481
-0.00762827
2281.12
264.802
0.345591
0.0148169
-0.197575
0.178802
81.621
0.139206
131.709
2207.07
2257.48
0.351236
-0.0663902
173.7
2225.89
0.202361
0.1181
-0.591161
2178
0.227236
1.01283
-0.278454
2389.72
-0.0964897
30.0609
0.218085
2261.32
0.417808
-0.000361933
-0.129717
0.104617
-0.311707
2258.93
0.0936352
-1.78517
1169.76
0.317419
0.0485771
2214.33
2238.36
0.259324
-0.361931
1109.15
-0.210253
0.0311027
242.174
-0.00274933
0.188743
0.162074
0.177942
1.8302
364.273
0.129325
-0.385866
0.654846
0.0847767
-0.235196
0.307716
0.38645
0.390381
44.0968
0.154611
-0.571117
0.0150593
0.034138
2339.48
-0.124522
0.224723
-0.305353
2361.81
0.188113
2199.65
0.0928959
-0.506837
-0.493142
-0.0126581
-0.456972
2306.27
-0.0432902
0.153541
0.217141
-0.154067
0.137307
0.434689
-0.0473582
2344.15
-0.643159
-0.311351
0.0223263
147.532
-0.310075
0.0913464
-0.719106
0.273685
1613.64
0.399828
-0.485618
18.8974
2289.97
2442.27
1420.54
376.488
-0.0517128
0.098506
2278.14
-0.440003
-0.0416984
0.0749689
0.158688
-0.368349
0.113952
-0.00694826
-0.0970756
2302.35
-0.00159816
2340.06
0.0936206
2413.13
0.568716
1044.27
0.139386
2239.42
0.915949
0.039743
-0.152019
-1.04843
-0.539033
-0.0528821
0.0297564
0.135434
2.31778
699.391
-0.173655
-0.102705
2.65106
2263.8
569.002
736.789
-0.349592
0.0731728
-0.0703389
2309.31
-0.0842853
-0.529266
0.887583
2195.5
-0.404957
0.250102
2405.73
-0.487768
1008.38
-0.0142998
-0.795191
-0.130482
-0.501754
0.00528255
0.0678797
-0.879178
0.0593367
2044.65
0.335825
-0.017673
-0.104188
0.0183997
2329.84
0.120107
0.0908517
-0.394069
-0.0877645
0.0434833
2334.65
0.119609
-0.0866295
2214.08
-0.0287573
0.822345
0.0462211
0.0270601
12.4405
-2.46722
0.114223
-0.195684
0.0149754
-0.580507
2384.43
-0.0862818
-0.14335
-0.141227
-0.147406
-0.112348
459.087
2247.02
0.00296405
0.221081
-0.367506
-0.264584
0.639964
-0.222605
-0.0261644
-0.00676347
-0.0266394
1312
2250.82
-0.578169
0.322663
2379.47
-22.9735
-0.35596
0.0572313
-0.304464
-0.113237
-0.416293
-0.618501
-0.166737
-0.020116
-0.178201
0.00403466
0.104145
-0.142391
-0.146517
-0.857222
0.027161
0.0270806
-0.321591
-0.0717953
0.450484
-0.39298
-0.342885
-0.0130256
-0.236651
-0.257789
2451.39
0.0320793
-0.0187512
0.108386
-0.967458
2375.43
-0.181902
-0.0603358
-0.187482
2253.14
0.00310962
0.00439129
-0.199462
-0.195106
-0.00853181
-0.0465949
-0.0102338
100.775
-0.282918
1654.02
2430.25
0.191709
0.442758
28.8709
-0.147814
-1.01426
-0.211761
0.0404925
-0.0394793
-0.112862
-0.00012724
-0.394289
-0.242636
-0.176273
-0.126559
-0.953139
-0.450997
0.0252529
131.255
-0.475277
0.0882823
-1.01632
0.261207
-0.0286087
-0.656723
2387.41
2305.13
-0.00719167
-0.0925162
-0.159811
-0.897271
-0.108853
-0.00615928
-0.189277
-0.0819519
-0.703214
-0.140113
-0.241231
-0.0250335
0.0904913
-0.0648691
-0.0287521
2166.06
-0.228436
1891.91
-0.135848
2417.94
-0.00637851
-0.178958
-0.329857
-0.00789983
-0.0700915
-1.05184
-0.0579821
-0.0334552
-0.86992
-0.359457
-0.0117399
-0.266561
165.334
-0.0193105
0.0406895
-0.0101589
0.168203
-0.188517
-0.206664
-0.16856
-0.283459
2101.35
-0.0455533
-0.010127
2353.04
-0.937393
0.0709743
819.835
2273.2
-0.332239
-0.237875
-0.288469
-0.136668
-0.224311
-0.141674
-0.216947
-0.0182492
-0.0406152
-0.0828555
-0.319539
-0.107076
1691.48
-0.0412402
-0.0987444
-0.0127531
0.314656
-0.518371
-0.987284
-0.259149
-0.159963
-0.0752349
2197.55
-0.545958
-0.342952
0.0820503
-0.0328079
0.216792
-0.130962
-0.392167
-0.0623983
-0.0175614
-0.721742
2427.96
-1.02604
-0.170401
-0.0745909
-0.186209
-0.196203
-0.0305074
-0.0407535
-0.271143
-0.279082
-0.0183708
-0.377032
-1.0024
-0.772486
-0.110252
-0.0660838
2391.13
-0.0387391
-0.0568933
-0.19443
-0.0192813
-0.346905
-0.0185836
0.011296
0.139637
-0.212027
-0.212077
0.0600784
0.0658958
-0.047519
-0.0271387
2220.52
-0.100044
2463
-0.877917
-0.0987251
2321.51
2236.76
-0.231652
-0.294601
-0.0913061
-0.144843
-0.29856
-0.0207208
-0.0782991
0.0104551
-0.0302335
-0.162618
2167.77
2288.19
-0.0437729
-0.021556
0.401085
-0.153857
0.0674687
0.0388962
-1.29329
-1.14514
2345.1
-0.026648
-0.934355
-0.113996
-0.0721582
-0.169512
2441.87
-0.193231
-0.0121701
0.186232
-0.59196
0.00498041
-0.038283
-0.266111
-0.301509
-0.17848
-0.211463
-0.0800147
-0.439171
-0.0362926
-0.982155
2230.94
-0.0620204
-0.0231458
75.1691
-0.173759
-0.134095
-0.622742
-0.201907
2397.73
-0.220986
-0.0251492
-0.277406
-0.422589
-0.18462
2240.71
-0.0264382
-0.316261
-0.071126
227.174
0.0534381
-0.0417277
-0.0575461
-0.334002
-0.010439
100.258
-0.0365685
-0.240014
-0.110427
0.120926
-0.207016
2221.21
-0.782274
-1.00896
-1.1702
-0.0503078
-0.238049
2382.4
-0.0450531
-0.259047
-0.0939052
-0.0046242
-0.285458
-0.0927246
2213.17
-0.0272997
-0.0273918
-0.235542
-0.0864878
2138.89
-0.105537
-0.830975
-0.140081
-0.154903
-0.0340962
-0.0757464
-0.127858
-0.354844
-0.0475463
-0.330257
-0.112955
0.0572
-0.0270374
-0.162992
0.0634961
-0.140358
-0.0351555
-0.177252
-0.0285873
984.684
-0.0707962
-0.00616449
0.0207586
-0.0848919
2428.08
-0.875831
-0.185327
2253.1
-0.0625569
-0.277236
-0.0293946
-0.033844
-0.0432377
0.387494
-0.0850329
-0.368944
-0.344543
-0.901371
-0.275721
-0.303378
-0.126078
-0.0240956
-0.505247
-0.485153
-0.234541
-0.216764
-0.0589992
-0.224252
-0.199124
2145.03
-0.672572
-0.0722598
2250.76
-0.203932
-1.09372
-0.0885764
-0.0300963
-0.382256
-0.0214244
2449.59
-0.0419448
-0.0532528
-0.957758
-0.0337229
-0.0993833
0.149958
-0.157985
-0.105597
-0.142292
-0.0833326
-0.708031
-0.0338486
-0.0311969
-0.108625
-0.149658
2120.72
-0.0744473
-0.0964004
-0.163156
-0.0325149
-0.370967
2.85177
2468.08
-0.265385
-0.0648481
-0.0470078
-0.295439
0.287884
0.422801
-0.181218
0.0927908
-0.820051
-0.170557
-0.0179827
2187.75
-0.05109
-0.224564
-0.0703861
-0.206797
-0.118293
-0.241376
-0.0340507
-0.13872
-0.18378
-0.911309
-0.35476
-0.922986
2172.18
-0.0400818
-0.0418281
-0.0346431
-0.870018
-0.0636356
-0.131142
-0.296045
2215.12
2206.5
-0.137411
2314.73
-0.162145
1855.64
-0.258552
2359
-0.191075
-0.330547
-0.90987
-0.0607792
-0.0323581
-0.0857451
-0.0476583
-0.0765892
-0.100213
-0.283384
-0.0949085
2152.21
-0.150876
0.13107
-0.561721
-0.0398989
-0.0813729
-0.0670821
-0.13852
-0.0406728
255.634
-0.24293
0.340585
-0.637594
2392.56
-0.311161
-0.110876
-0.412756
2210.23
-0.0304414
-0.0353392
-0.428388
-0.157669
-0.0561047
-0.960934
-0.588862
-0.477514
-0.117084
-0.0344376
-0.0382871
0.0804666
-0.0739552
2282.31
0.70897
-0.338925
2230.32
-0.276064
-0.170093
-0.0466222
2449.98
-0.746367
2185.89
-0.269159
-0.0362262
-0.0500641
-0.244796
-0.10556
-0.070605
0.00704225
-0.0391471
-0.161671
-0.358304
-0.0933273
-0.204136
-0.79262
-0.0543387
-0.220612
-0.176923
-0.0457823
-0.300738
-0.874747
-0.0398636
-0.0962159
-0.0649982
-0.0917002
1104.64
-0.240497
-0.869078
1.98111
-1.03126
-0.216057
-0.105403
-0.0839208
-1.50009
-0.0383166
-0.110658
-0.0626397
-0.264464
-0.0365885
-0.270662
-0.189288
-0.0709606
0.302779
-0.293816
-0.140462
-0.0394262
-0.0450459
-0.129305
2468.03
-0.227539
-0.349643
-0.146633
2347.24
-0.0452721
-0.158081
-0.115734
-0.0802522
-0.0641783
-0.0387061
-0.919696
-0.0376327
-0.0527657
-0.227228
-0.0514436
2328.13
-0.834935
-0.0498022
-0.19424
-0.121246
2251.97
-0.0404263
-0.257227
2380.14
-0.128622
-0.0739916
-0.164405
-1.25379
-0.19593
-0.210905
-0.0586769
-0.897895
2.83132
-0.341239
-0.471056
-0.494163
-0.642731
-0.281701
-0.0445039
-0.315647
-0.0518015
2443.98
-0.0448343
-0.146627
-0.0933086
-0.0711877
-0.386588
-0.0917616
-0.10575
-0.375463
-0.101221
2292.86
-0.681387
-0.655279
-0.13308
-0.175949
-0.082917
-0.0894643
-0.0505331
310.305
2452.57
-0.309301
-0.0663997
2032.04
-0.815706
-0.0485639
-0.871258
-0.156635
-0.28365
-0.11478
-0.0571608
-0.275124
-0.0828117
-0.0403611
-0.147705
0.104204
-0.246687
-0.0398653
-0.11999
-0.182254
2.13862
-0.948223
-0.87235
-0.411557
-0.173424
-0.137239
-0.0643822
-0.153476
-0.0669767
-0.298621
-0.0432341
-0.0797023
2231.31
-0.0414602
-0.223599
2.53398
-0.0508932
0.463041
-0.0619274
-0.2633
2110.52
-0.914966
-0.0445501
-0.438572
-0.1092
-0.164146
-0.348851
-0.0743208
-0.101983
-0.0993818
-0.815134
-0.0490053
1304.48
-0.09808
-0.32385
2254.54
-0.131061
-0.109845
-0.208193
0.327085
-0.29236
-0.114297
-0.0478789
-0.0545441
-0.0912423
-0.19386
-0.0719168
2202.13
2230.15
-0.0413939
0.0326698
-0.170026
-0.935652
-0.0608732
-0.0423973
-1.92011
-0.0425004
-0.229615
-0.241606
-0.0528434
-0.0879496
-0.0819523
-0.0434134
-0.257811
-0.0448529
0.0851029
-0.313742
-1.16087
-0.538105
2187.12
-0.067702
-0.0755235
-0.280447
-0.138821
-0.570647
-0.722558
-0.144036
-0.123255
-0.0486842
-0.0821921
-0.414305
-0.342914
-0.431478
-1.58843
-0.754952
-0.873625
-0.153817
-0.0536556
-0.18084
2177.7
2240.16
2097.8
-0.0472414
-0.772736
-0.214456
-0.122146
-0.112154
-0.0594864
-1.12225
2176.93
-0.0795137
-0.0534621
-0.307862
-0.368845
-0.199917
-0.27444
-0.099135
-0.905992
-0.10986
-0.105988
-0.159212
-0.0659006
-0.370678
-0.0639984
-0.0747851
-1.31528
-0.530308
-0.0957626
-0.361306
-0.186638
-0.0438049
-0.11754
-0.05203
-0.0452911
2247.53
-0.0601229
-0.791207
-0.328027
-0.089811
-0.973016
-0.09472
-0.296741
-0.0876151
-0.072661
-0.048059
-0.121949
-0.169204
-0.142696
-0.263375
-0.0520178
-0.086961
2358.55
-0.144868
-0.0569551
2.98559
-0.0598304
-0.0438977
-0.964696
-0.136002
-0.291051
-0.128877
-0.062635
-0.247534
2390.77
2324.08
-0.0819006
-0.14976
-0.322164
373.274
-0.174647
-0.0748827
-0.0458088
-0.0688112
-0.0462076
2495.02
-0.106387
-0.395446
-0.0496926
-0.113124
-0.225861
-0.103019
-0.0701816
-0.211408
-0.332
-0.291913
-0.458739
-0.0586491
-0.0795451
-0.463549
-0.0480699
-0.0970255
-0.116902
-0.0576938
-0.279369
-0.48853
-0.605185
0.283162
-0.15892
-0.0515306
2426.2
-0.911774
-0.258119
-0.197502
-0.311831
-0.0560094
-0.0448117
-0.0940943
-0.647861
-0.81335
-0.0970068
-0.0612871
-0.274119
-0.233853
-0.104437
-0.0539536
-0.0752727
287.876
-0.0888606
-0.0671283
2291.99
3.43482
-0.163943
-0.893832
-0.306338
-0.242728
-0.336372
-0.399337
-0.0616973
-0.184794
2141.55
-0.137215
-0.124482
-0.188921
-0.878674
-0.0863598
3.54398
-0.0842546
-0.141612
-1.04576
-0.0733318
-0.385822
-0.0453257
-0.049097
-0.0790866
-0.394541
-0.231595
-0.149927
2210.93
2209.61
-0.217131
-0.203064
-0.0527889
-0.295067
-0.0463148
-0.130626
-0.0479011
-0.120343
-0.0818191
-0.112937
-0.103724
-0.656236
-0.0504841
-0.109636
2215.64
2242.23
-0.263363
1901.41
-0.100788
-0.054135
-0.0587773
-0.190125
-0.3261
-0.154501
-0.0464769
-0.173316
-0.0586847
-0.0955152
2062.1
-1.06681
-0.248211
-0.063933
-0.353576
-0.0697787
-0.289813
0.266506
2067.38
-0.278719
-0.0796965
-0.514105
0.0700705
-0.0583955
-0.11946
-0.092947
-0.0696789
2097.58
-0.320537
-0.0663234
-0.0571322
-0.358402
-0.695746
-0.545949
-0.0882758
-0.123161
-0.437755
-0.258488
-0.243618
-0.273775
-0.0461506
-0.17834
-0.0477977
-0.361812
-0.227731
-0.163082
-0.0860215
-0.0915889
-0.309849
-0.0757259
-0.14216
-0.0500349
2144.23
-0.134681
-0.0533548
-0.233157
-0.0576096
-0.200296
2273.13
-0.66507
2182.43
1778.32
-0.146281
-0.213875
-0.0626039
-0.154106
2168.27
-0.0860442
-0.063524
-0.0507682
-0.0681514
-0.0467134
-0.41864
-0.109827
-0.722943
-0.076697
-0.0542001
-0.922112
-0.101748
-0.304738
-0.106946
-0.0481583
-0.0729463
-0.431172
-0.187858
-0.248797
-0.103991
-0.219223
-0.853894
-0.115562
-0.29376
-0.154064
-0.0991792
-0.229096
-0.0740634
-0.205435
2012.8
-0.167737
-0.0615945
-0.263494
-0.288825
-0.128677
-0.0818883
2346.17
-0.118748
-0.0944971
1963.48
-0.339996
-0.215784
-1.05907
-0.192777
2377.01
-0.046606
-0.278311
2354.69
2460.59
-0.688952
-0.0922227
-0.479998
2199.07
-0.0580384
-0.234161
-0.158317
-0.437592
-0.258785
-0.20228
-0.220832
-0.0801492
-0.135542
2312.31
-0.244184
-0.45594
-0.0525669
-0.176521
-0.334136
-0.0496072
-0.13922
-0.125079
-0.0635062
-0.553275
-0.0661379
-0.323878
2412.65
1464.88
1959.02
-0.0476492
-0.230251
-0.128875
-0.146216
-0.207048
2089.14
-0.181153
-0.0880012
-0.273532
-0.383516
-0.535376
-0.695444
-0.217555
-0.292863
-0.999205
3.4926
3.54756
-0.0780778
2091.83
-0.222816
-0.0822833
-0.107471
-0.308127
-0.112503
-0.190063
-0.303315
-0.150054
3.51447
-0.12992
2236.65
2283.41
-0.318687
-0.288113
2102.68
-0.554135
-0.115283
-0.0560896
-0.104957
-0.046628
-0.061857
-0.0483619
-0.166341
-0.0920121
2120.29
2197.33
-0.0512039
-0.355095
1981.92
-0.194622
-0.100365
2216.07
-0.0550557
-0.203552
-0.0597573
-0.590801
3.11456
-0.0651062
-0.0862414
3.12817
-0.20764
-0.234786
1510.48
-0.630428
-0.0709209
-0.123829
-0.0712986
-0.170636
-0.120764
-0.249699
-0.0981061
-0.278251
-0.157314
0.0359891
-0.13948
-0.0459957
-0.263864
2203.36
-0.178842
-0.487691
-0.133247
-0.0686041
0.233294
-0.110416
2078.69
-0.0770131
-0.37279
-0.409181
-0.142905
-0.0939233
-0.183117
-0.0596891
-0.191456
-0.161241
-0.770263
-0.514178
-0.306829
-0.0654096
-0.221434
-0.677125
-0.1952
-0.2925
-0.302232
-0.149412
-0.0465629
-0.12819
-0.112619
-0.04826
-0.168717
-0.348156
-1.00226
-0.2449
-0.438208
-0.316969
-0.0832041
-0.273063
-0.120056
-0.110203
-0.0508341
-0.133789
-0.0921919
-0.258749
-0.152956
2247.93
-0.125272
-0.816255
-0.117413
-0.337228
-0.136816
-0.287365
2151.33
-0.321779
2158.08
-0.331854
-0.0631187
-0.17267
1891.58
-0.224527
-0.201153
-0.914903
-0.105785
2096.57
-0.129046
-0.180284
2144.28
-0.0832493
-0.096882
-0.532992
-0.142592
-0.420207
-0.394863
2168.83
-0.463443
-0.444073
-0.0539781
-0.159695
-0.0755971
-0.136801
-0.124141
-0.183704
-0.131724
-0.103592
-0.0723853
-0.556774
-0.0893345
-0.14575
-0.121646
-0.50546
-0.117147
2188.51
-0.0462239
-0.306249
2204.38
-0.0476006
-0.151762
-0.0501175
-0.139583
-0.320129
-0.0536755
-0.163301
-0.18927
-0.0581321
-0.131983
-0.462125
-0.0572849
-0.0633008
-0.0689903
-0.114862
0.0234185
-0.134405
-0.315648
-0.0995376
-0.127532
-0.301364
2138.44
3.0553
2.91489
-0.0750212
-0.110685
-0.170195
-0.144888
-0.272252
-0.125212
2160.4
-0.243938
-0.121024
-0.139033
-0.257669
-0.060504
-0.0675775
2193.75
-0.0812078
-0.286731
-0.155007
-0.0869676
-0.479424
-0.128067
-0.134149
-0.431195
-0.118896
-0.0458228
-0.0468498
-0.173275
-0.147769
-0.0487596
-0.329721
-0.095265
-0.130164
-0.0978771
2034.95
-0.217494
-0.205414
-0.178156
-0.0657645
-0.530887
-0.334571
-0.136327
-0.141556
-0.363952
-0.444007
-0.11501
-0.350528
-0.124242
-0.0514826
-0.364473
-0.430669
-0.108596
-0.0646296
-0.412027
-0.0873864
-0.344628
2040.73
2210.66
2195.46
-0.416677
-0.122279
-0.130184
-0.140437
-0.193029
-0.146329
2128.86
-0.0768587
-0.700917
-0.13204
-0.346781
-0.332447
-0.118722
-0.398906
-0.13552
-0.300926
-0.113055
-0.939001
-0.797308
-0.605584
-0.0546209
-0.161182
-0.476982
-0.126792
-0.391712
-0.104748
-0.328082
-0.153234
-0.319266
2185.82
-0.357488
-0.0934097
-0.0578001
-0.125006
-0.277612
-0.0797308
-0.358668
-0.136948
-0.14218
-0.232663
-0.121799
-0.181661
-0.168094
-0.341678
-0.380834
-0.248949
-0.443848
-0.116924
-0.263046
-0.372699
-0.131541
2200.9
-0.127082
-0.314776
-0.12865
-0.512829
-0.109472
-0.370965
-0.0631548
-0.0612603
-0.353035
2189.38
-0.163923
-0.370482
-0.408601
-0.394405
-0.132667
-0.148398
-0.291965
-0.397934
-0.343807
-0.12017
-0.384643
-0.124236
-0.419159
2196.17
2180.4
-0.128469
-0.37935
-0.409351
-0.0708567
0.213702
-0.138555
-0.171217
-0.354332
-0.331264
-0.13374
-0.36403
-0.100881
-0.0991565
-0.129305
-0.126108
-0.122768
-0.113647
-0.490382
-0.456019
-0.103195
-0.417341
-0.144365
-0.129889
-0.126288
-0.068383
-0.124719
-0.364184
-0.117234
2193.94
2194.71
-0.339439
-0.12686
-0.392927
-0.314622
-0.305984
-0.349787
-0.382188
-0.155636
-0.385094
-0.112401
-0.394018
-0.374826
-0.127
-0.427331
-0.120192
-0.550004
-0.108061
-0.135001
-0.400956
-0.140163
-0.15911
-0.161842
-0.373491
-0.53869
-0.359264
-0.398402
-0.122489
-0.327295
-0.130813
-0.125125
-0.124106
-0.110807
-0.11497
-0.113806
-0.342065
-0.0744551
-0.351579
-0.127582
-0.125296
-0.368049
-0.387875
-0.405655
-0.332147
-0.327582
-0.339551
-0.151206
-0.385437
-0.146335
-0.125345
-0.383722
-0.359988
-0.382134
-0.116168
-0.389941
-0.124186
-0.124354
-0.124751
-0.367475
-0.374195
-0.119322
-0.338691
-0.376152
-0.121822
-0.379925
-0.378518
-0.123625
-0.606447
-0.373496
-0.375849
-0.377982
-0.379966
-0.371786
2196.55
2201.36
-0.378068
2201.6
-0.379128
2201.63
-0.120743
-0.121431
-0.153551
-0.118528
-0.117593
-0.109431
-0.123611
-0.123196
-0.104525
-0.106088
-0.359514
-0.362985
-0.319454
-0.370289
-0.3673
-0.354126
-0.350258
-0.379201
-0.12471
-0.124934
-0.125412
-0.125627
-0.124864
-0.124973
-0.343782
-0.377607
2232.2
-0.365191
-0.348777
-0.357559
-0.0721832
-0.0705729
2093.9
3.13941
2005.34
-0.0671966
-0.0676042
0.0162117
-0.38667
-0.0660703
-0.0687431
1.5758
2234.53
1969.33
2043.29
-0.0661973
1852.69
0.0066324
-12.9351
2099.74
0.0423484
1362.62
-0.37904
0.186715
2040.36
-0.393002
-0.418267
323.723
-44.9616
-1035.86
-36.9658
-159.121
96.641
2172.96
1954.18
1843.6
3.27902
3.40566
3.35513
1668.7
0.164735
0.00318677
3.19555
-2.21438
-1.86733
1855.34
1966.88
698.293
8.13981
2282.64
3.25925
40.4936
35.0218
3.16613
564.049
-48.8873
336.828
-64.6981
-39.7586
-53.249
59.5153
48.0268
2174.29
0.142822
3.38177
2307.27
-22.5129
3.33768
-1.61274
3.3512
-0.258063
3.24431
0.121184
3.26302
0.0315752
-0.314782
3.42315
0.147573
3.24331
-1.17756
3.17064
-1.18855
-0.713438
0.103477
-0.379188
3.08789
-1.12867
3.1625
-1.85222
3.14998
-0.214204
0.0843488
-0.818095
-4.82618
-0.849929
59.3633
0.0683272
-0.432337
-0.117502
-1.12724
0.0559018
-3.67218
0.0442459
-1.42019
3.27463
0.0203043
3.08677
3.53004
3.43319
-9.88073
0.0273574
47.7846
40.8173
-1.04115
)
;

boundaryField
{
    patch0
    {
        type            fixedFluxPressure;
        gradient        uniform 0;
        value           nonuniform List<scalar> 
4010
(
2.01328
2.01328
7.87779
7.87779
-0.051933
-0.051933
0.511072
0.511072
0.713574
0.713574
-0.430423
-0.430423
-0.450696
-0.450696
-0.65001
-0.65001
-0.814916
-0.814916
-0.0588823
-0.0588823
-0.725739
-0.725739
-0.749564
-0.749564
0.224469
0.224469
-0.796852
-0.796852
-0.322074
-0.322074
-0.298931
-0.298931
0.220336
0.220336
-0.892912
-0.892912
2.42761
2.42761
-0.770214
-0.770214
0.525359
0.525359
0.0316831
0.0316831
0.051207
0.051207
-0.885762
-0.885762
0.0181573
0.0181573
-0.0346323
-0.0346323
-0.0407073
-0.0407073
-1.28057
-1.28057
0.403288
0.403288
2284.31
2284.31
0.0957094
0.0957094
0.00809918
0.00809918
1.41315
1.41315
0.140187
0.140187
0.154941
0.154941
0.0345017
0.0345017
0.0112045
0.0112045
0.324422
0.324422
2284.78
2284.78
0.140596
0.140596
-0.00482421
-0.00482421
0.281046
0.281046
-0.0173631
-0.0173631
0.0328043
0.0328043
1774.88
1774.88
0.662248
0.662248
946.398
946.398
1827.99
1827.99
1.09967
1.09967
0.918018
0.918018
-0.195001
-0.195001
0.318215
0.318215
0.0388731
0.0388731
-0.285061
-0.285061
0.644867
0.644867
0.113362
0.113362
143.154
143.154
1711.01
1711.01
744.449
744.449
-0.125976
-0.125976
-0.0198353
-0.0198353
-0.277406
-0.277406
-0.0431255
-0.0431255
2252.58
2252.58
-0.241214
-0.241214
1568.63
1568.63
-0.201026
-0.201026
0.0514925
0.0514925
0.468378
0.468378
-0.147803
-0.147803
0.537764
0.537764
-0.262843
-0.262843
2272.35
2272.35
2289.24
2289.24
2319.3
2319.3
0.354971
0.354971
1227.74
1227.74
2324.28
2324.28
2058.6
2058.6
-0.100651
-0.100651
-1.01811
-1.01811
-0.0607861
-0.0607861
2227.58
2227.58
0.502729
0.502729
1.83717
1.83717
0.0408573
0.0408573
115.926
115.926
-0.333696
-0.333696
0.568611
0.568611
0.600923
0.600923
-0.190672
-0.190672
-0.0712663
-0.0712663
0.529827
0.529827
0.354288
0.354288
0.43349
0.43349
-0.309645
-0.309645
646.366
646.366
-1.11563
-1.11563
-0.114333
-0.114333
0.438367
0.438367
0.0614502
0.0614502
0.443471
0.443471
-0.119798
-0.119798
-0.0882684
-0.0882684
0.31869
0.31869
2367
2367
0.183889
0.183889
0.298713
0.298713
-0.121062
-0.121062
0.361058
0.361058
1151.83
1151.83
0.347691
0.347691
0.11008
0.11008
2241.57
2241.57
2124.87
2124.87
0.789951
0.789951
0.0122718
0.0122718
-0.296626
-0.296626
0.001734
0.001734
2106.92
2106.92
2.39916
2.39916
100.937
100.937
0.41869
0.41869
0.727847
0.727847
-0.223519
-0.223519
0.2104
0.2104
0.333459
0.333459
2343.9
2343.9
0.283557
0.283557
1377.41
1377.41
1241.88
1241.88
0.0970757
0.0970757
0.32863
0.32863
2230.65
2230.65
0.34009
0.34009
0.247232
0.247232
0.250211
0.250211
0.245866
0.245866
-0.756335
-0.756335
0.0937297
0.0937297
481.02
481.02
-0.236253
-0.236253
811.205
811.205
811.205
1.43232
1.43232
1.43232
-0.101075
-0.101075
1608.3
1608.3
0.261196
0.261196
0.477468
0.477468
-0.129481
-0.129481
-0.00762827
-0.00762827
2281.12
2281.12
264.802
264.802
264.802
0.345591
0.345591
0.0148169
0.0148169
-0.197575
-0.197575
0.178802
0.178802
81.621
81.621
0.139206
0.139206
131.709
131.709
2207.07
2207.07
2257.48
2257.48
0.351236
0.351236
-0.0663902
-0.0663902
173.7
173.7
2225.89
2225.89
0.202361
0.202361
0.1181
0.1181
-0.591161
-0.591161
2178
2178
0.227236
0.227236
1.01283
1.01283
-0.278454
-0.278454
2389.72
2389.72
-0.0964897
-0.0964897
30.0609
30.0609
0.218085
0.218085
2261.32
2261.32
0.417808
0.417808
-0.000361933
-0.000361933
-0.129717
-0.129717
0.104617
0.104617
-0.311707
-0.311707
2258.93
2258.93
0.0936352
0.0936352
-1.78517
-1.78517
1169.76
1169.76
0.317419
0.317419
0.0485771
0.0485771
2214.33
2214.33
2238.36
2238.36
0.259324
0.259324
-0.361931
-0.361931
1109.15
1109.15
-0.210253
-0.210253
0.0311027
0.0311027
242.174
242.174
242.174
-0.00274933
-0.00274933
0.188743
0.188743
0.162074
0.162074
0.177942
0.177942
1.8302
1.8302
364.273
364.273
0.129325
0.129325
-0.385866
-0.385866
0.654846
0.654846
0.0847767
0.0847767
-0.235196
-0.235196
0.307716
0.307716
0.38645
0.38645
0.390381
0.390381
0.390381
44.0968
44.0968
0.154611
0.154611
-0.571117
-0.571117
0.0150593
0.0150593
0.034138
0.034138
2339.48
2339.48
-0.124522
-0.124522
0.224723
0.224723
-0.305353
-0.305353
2361.81
2361.81
0.188113
0.188113
2199.65
2199.65
0.0928959
0.0928959
-0.506837
-0.506837
-0.493142
-0.493142
-0.0126581
-0.0126581
-0.456972
-0.456972
2306.27
2306.27
-0.0432902
-0.0432902
0.153541
0.153541
0.217141
0.217141
-0.154067
-0.154067
0.137307
0.137307
0.434689
0.434689
-0.0473582
-0.0473582
2344.15
2344.15
2344.15
-0.643159
-0.643159
-0.311351
-0.311351
0.0223263
0.0223263
147.532
147.532
147.532
-0.310075
-0.310075
0.0913464
0.0913464
-0.719106
-0.719106
0.273685
0.273685
1613.64
1613.64
0.399828
0.399828
-0.485618
-0.485618
18.8974
18.8974
2289.97
2289.97
2442.27
2442.27
1420.54
1420.54
376.488
376.488
-0.0517128
-0.0517128
0.098506
0.098506
2278.14
2278.14
-0.440003
-0.440003
-0.0416984
-0.0416984
0.0749689
0.0749689
0.158688
0.158688
-0.368349
-0.368349
0.113952
0.113952
-0.00694826
-0.00694826
-0.0970756
-0.0970756
2302.35
2302.35
-0.00159816
-0.00159816
2340.06
2340.06
0.0936206
0.0936206
2413.13
2413.13
0.568716
0.568716
1044.27
1044.27
0.139386
0.139386
2239.42
2239.42
0.915949
0.915949
0.039743
0.039743
-0.152019
-0.152019
-1.04843
-1.04843
-0.539033
-0.539033
-0.0528821
-0.0528821
0.0297564
0.0297564
0.135434
0.135434
2.31778
2.31778
699.391
699.391
699.391
-0.173655
-0.173655
-0.102705
-0.102705
2.65106
2.65106
2263.8
2263.8
569.002
569.002
736.789
736.789
-0.349592
-0.349592
0.0731728
0.0731728
-0.0703389
-0.0703389
2309.31
2309.31
-0.0842853
-0.0842853
-0.529266
-0.529266
0.887583
0.887583
2195.5
2195.5
-0.404957
-0.404957
0.250102
0.250102
2405.73
2405.73
-0.487768
-0.487768
1008.38
1008.38
1008.38
-0.0142998
-0.0142998
-0.795191
-0.795191
-0.130482
-0.130482
-0.501754
-0.501754
0.00528255
0.00528255
0.0678797
0.0678797
-0.879178
-0.879178
0.0593367
0.0593367
2044.65
2044.65
0.335825
0.335825
-0.017673
-0.017673
-0.104188
-0.104188
0.0183997
0.0183997
2329.84
2329.84
0.120107
0.120107
0.0908517
0.0908517
-0.394069
-0.394069
-0.0877645
-0.0877645
0.0434833
0.0434833
2334.65
2334.65
0.119609
0.119609
-0.0866295
-0.0866295
2214.08
2214.08
-0.0287573
-0.0287573
0.822345
0.822345
0.0462211
0.0462211
0.0270601
0.0270601
12.4405
12.4405
-2.46722
-2.46722
0.114223
0.114223
-0.195684
-0.195684
0.0149754
0.0149754
-0.580507
-0.580507
2384.43
2384.43
-0.0862818
-0.0862818
-0.14335
-0.14335
-0.141227
-0.141227
-0.147406
-0.147406
-0.112348
-0.112348
459.087
459.087
2247.02
2247.02
0.00296405
0.00296405
0.221081
0.221081
-0.367506
-0.367506
-0.264584
-0.264584
0.639964
0.639964
-0.222605
-0.222605
-0.0261644
-0.0261644
-0.00676347
-0.00676347
-0.0266394
-0.0266394
1312
1312
2250.82
2250.82
-0.578169
-0.578169
0.322663
0.322663
2379.47
2379.47
-22.9735
-22.9735
-0.35596
-0.35596
0.0572313
0.0572313
-0.304464
-0.304464
-0.113237
-0.113237
-0.416293
-0.416293
-0.618501
-0.618501
-0.166737
-0.166737
-0.020116
-0.020116
-0.178201
-0.178201
0.00403466
0.00403466
0.104145
0.104145
-0.142391
-0.142391
-0.146517
-0.146517
-0.857222
-0.857222
0.027161
0.027161
0.0270806
0.0270806
-0.321591
-0.321591
-0.0717953
-0.0717953
0.450484
0.450484
-0.39298
-0.39298
-0.342885
-0.342885
-0.0130256
-0.0130256
-0.236651
-0.236651
-0.257789
-0.257789
2451.39
2451.39
0.0320793
0.0320793
-0.0187512
-0.0187512
0.108386
0.108386
-0.967458
-0.967458
2375.43
2375.43
-0.181902
-0.181902
-0.0603358
-0.0603358
-0.187482
-0.187482
2253.14
2253.14
0.00310962
0.00310962
0.00439129
0.00439129
-0.199462
-0.199462
-0.195106
-0.195106
-0.00853181
-0.00853181
-0.00853181
-0.0465949
-0.0465949
-0.0102338
-0.0102338
100.775
100.775
-0.282918
-0.282918
1654.02
1654.02
2430.25
2430.25
0.191709
0.191709
0.442758
0.442758
28.8709
28.8709
28.8709
-0.147814
-0.147814
-1.01426
-1.01426
-0.211761
-0.211761
0.0404925
0.0404925
-0.0394793
-0.0394793
-0.112862
-0.112862
-0.00012724
-0.00012724
-0.394289
-0.394289
-0.242636
-0.242636
-0.176273
-0.176273
-0.126559
-0.126559
-0.953139
-0.953139
-0.450997
-0.450997
0.0252529
0.0252529
131.255
131.255
-0.475277
-0.475277
0.0882823
0.0882823
-1.01632
-1.01632
0.261207
0.261207
-0.0286087
-0.0286087
-0.656723
-0.656723
2387.41
2387.41
2305.13
2305.13
-0.00719167
-0.00719167
-0.0925162
-0.0925162
-0.159811
-0.159811
-0.897271
-0.897271
-0.108853
-0.108853
-0.00615928
-0.00615928
-0.189277
-0.189277
-0.0819519
-0.0819519
-0.703214
-0.703214
-0.140113
-0.140113
-0.241231
-0.241231
-0.0250335
-0.0250335
0.0904913
0.0904913
-0.0648691
-0.0648691
-0.0287521
-0.0287521
2166.06
2166.06
-0.228436
-0.228436
1891.91
1891.91
1891.91
-0.135848
-0.135848
2417.94
2417.94
-0.00637851
-0.00637851
-0.178958
-0.178958
-0.329857
-0.329857
-0.00789983
-0.00789983
-0.0700915
-0.0700915
-1.05184
-1.05184
-0.0579821
-0.0579821
-0.0334552
-0.0334552
-0.86992
-0.86992
-0.359457
-0.359457
-0.0117399
-0.0117399
-0.266561
-0.266561
165.334
165.334
-0.0193105
-0.0193105
0.0406895
0.0406895
-0.0101589
-0.0101589
0.168203
0.168203
-0.188517
-0.188517
-0.206664
-0.206664
-0.16856
-0.16856
-0.283459
-0.283459
2101.35
2101.35
-0.0455533
-0.0455533
-0.010127
-0.010127
2353.04
2353.04
-0.937393
-0.937393
0.0709743
0.0709743
819.835
819.835
2273.2
2273.2
-0.332239
-0.332239
-0.237875
-0.237875
-0.288469
-0.288469
-0.136668
-0.136668
-0.224311
-0.224311
-0.141674
-0.141674
-0.216947
-0.216947
-0.0182492
-0.0182492
-0.0406152
-0.0406152
-0.0828555
-0.0828555
-0.319539
-0.319539
-0.107076
-0.107076
1691.48
1691.48
-0.0412402
-0.0412402
-0.0987444
-0.0987444
-0.0127531
-0.0127531
0.314656
0.314656
-0.518371
-0.518371
-0.987284
-0.987284
-0.259149
-0.259149
-0.159963
-0.159963
-0.0752349
-0.0752349
2197.55
2197.55
-0.545958
-0.545958
-0.342952
-0.342952
0.0820503
0.0820503
-0.0328079
-0.0328079
0.216792
0.216792
-0.130962
-0.130962
-0.392167
-0.392167
-0.0623983
-0.0623983
-0.0175614
-0.0175614
-0.721742
-0.721742
2427.96
2427.96
-1.02604
-1.02604
-0.170401
-0.170401
-0.0745909
-0.0745909
-0.186209
-0.186209
-0.196203
-0.196203
-0.0305074
-0.0305074
-0.0407535
-0.0407535
-0.271143
-0.271143
-0.279082
-0.279082
-0.0183708
-0.0183708
-0.377032
-0.377032
-1.0024
-1.0024
-0.772486
-0.772486
-0.110252
-0.110252
-0.0660838
-0.0660838
2391.13
2391.13
-0.0387391
-0.0387391
-0.0568933
-0.0568933
-0.19443
-0.19443
-0.0192813
-0.0192813
-0.346905
-0.346905
-0.0185836
-0.0185836
0.011296
0.011296
0.139637
0.139637
-0.212027
-0.212027
-0.212077
-0.212077
0.0600784
0.0600784
0.0658958
0.0658958
-0.047519
-0.047519
-0.0271387
-0.0271387
2220.52
2220.52
-0.100044
-0.100044
2463
2463
-0.877917
-0.877917
-0.0987251
-0.0987251
2321.51
2321.51
2236.76
2236.76
-0.231652
-0.231652
-0.294601
-0.294601
-0.0913061
-0.0913061