/*--------------------------------*- C++ -*----------------------------------*\
  =========                 |
  \\      /  F ield         | OpenFOAM: The Open Source CFD Toolbox
   \\    /   O peration     | Website:  https://openfoam.org
    \\  /    A nd           | Version:  8
     \\/     M anipulation  |
\*---------------------------------------------------------------------------*/
FoamFile
{
    version     2.0;
    format      ascii;
    class       surfaceScalarField;
    location    "0.1";
    object      phi;
}
// * * * * * * * * * * * * * * * * * * * * * * * * * * * * * * * * * * * * * //

dimensions      [0 3 -1 0 0 0 0];

internalField   nonuniform List<scalar> 
2805
(
-0.00122735
0.000223066
0.00100428
0.000505353
-0.0017327
0.00031966
-0.000398105
7.84456e-05
0.000613743
-0.000294083
-0.000171187
0.00067654
0.000696756
-8.30133e-05
0.00101231
-0.000315556
0.00124645
-0.000234134
0.00110947
0.00013698
-0.000397274
-8.31179e-07
0.00145556
-0.000346096
0.00106752
0.000388044
0.00110447
-0.000996132
-0.000108337
0.00172809
-0.000660573
-0.000508217
-0.000304819
0.000813036
-0.000770903
0.000262687
0.000801744
0.000302724
0.00101399
0.000714104
-0.00045662
0.000679686
0.00151956
-0.000505568
0.00147025
0.000552204
-0.00202245
0.000533119
-0.000562406
2.9287e-05
-0.000116665
0.000576984
-0.000460319
0.000477573
0.00104198
0.000465854
6.72646e-05
0.000193355
-0.00053212
0.000338765
0.000629874
-0.000436519
-0.000265703
-0.00103301
0.00129871
0.000683462
0.000275167
-0.000958629
-9.21752e-05
-0.00111261
0.00120478
-0.000435347
0.000318682
4.61589e-05
0.000419695
-0.00166539
0.00143937
0.00022602
0.000715358
8.63866e-05
-0.00082681
0.000561108
0.000359754
0.00021723
0.000604783
-0.000558624
-0.000229663
0.000913125
0.000977083
-0.00106926
0.00028001
0.000494432
0.000110351
0.00104939
0.00042086
-3.76879e-05
0.000128953
-0.000589272
6.79586e-05
0.000813518
-0.000881477
0.00106124
0.000549463
-0.0016107
0.00126014
-0.00108196
-0.000178183
0.000990595
-0.000217911
-0.000772684
0.0038373
-0.00469967
0.000862371
-0.00339058
0.00125656
0.00213401
0.000249487
-0.000502778
0.000253291
5.32543e-05
-0.000429138
-0.000133267
0.000304284
-5.47965e-05
0.000568382
-0.00125744
0.000689056
-0.00122408
0.000803521
0.00105855
0.000127187
0.000931366
-0.000378507
-0.000136536
0.000515043
-0.000265913
0.000394866
-0.000455184
-0.000315719
0.000257424
-0.000523337
-0.00116252
0.000775351
0.000387168
0.000175583
0.000128701
-0.00110049
0.000882582
-0.00046968
0.000570731
-0.00010105
0.00055647
-0.000196716
0.00133641
7.03286e-05
-0.000573107
-0.000732876
0.000846356
-0.00011348
-0.00082193
0.000366747
-0.000185436
-0.00139587
0.000283267
-0.00100815
-0.00038772
-0.00063585
0.000767393
-0.000131543
-0.000556891
-0.000543601
-0.00133358
0.000325423
-0.00150798
0.000735295
0.000327752
-4.80655e-06
-0.0010116
0.00101641
0.000463442
0.000166432
-0.00106772
0.000534823
0.000532901
0.00105665
-0.000504447
-0.00066111
0.000206337
0.000350134
-0.000905822
-0.000845883
0.000541064
0.000446718
0.000418246
-0.00115112
-0.000663091
0.00019341
0.000580491
-0.000117049
0.00111785
0.00114853
-0.000365025
-0.000783501
-0.000335055
0.000753301
0.00014269
3.28934e-05
-0.00135823
0.000801337
0.0012189
-0.0012237
-5.00222e-05
-0.000328485
-0.000274882
-0.000360968
0.00101831
-3.75271e-05
-0.000980782
0.000721596
0.000327441
-0.000377463
0.000426973
0.000153518
0.000302465
0.000846061
-0.0013511
0.00127254
7.85643e-05
0.00112552
-0.00119403
6.85104e-05
0.00097291
-0.000670445
0.000315783
-0.000452319
0.00075282
-0.00153711
0.000178883
0.000234143
0.00110226
-0.00040085
0.000419191
-0.00108085
0.000661664
-0.00108514
-0.000422844
0.00115127
-0.00165572
0.00109676
0.000724382
-0.000461695
0.000184762
-0.000358939
0.000174177
-0.00162874
0.000706382
-0.00136749
-0.00390566
0.00545952
-0.00155386
-0.000765885
1.52533e-07
0.000310847
0.000259884
-0.000731807
0.0009031
-0.000171293
0.000238114
0.000529279
-0.000219733
-0.00111384
0.000986964
-0.00120162
0.00313927
-0.00193765
-0.00120026
-0.000336852
0.001088
0.000512871
-0.00042076
-9.21114e-05
-0.000648533
0.00077485
0.000991794
-0.000145732
9.17697e-05
0.000821356
-0.000705032
0.0011826
0.000160258
-2.32402e-05
-0.000511084
0.000933034
-0.000933034
-0.00180297
0.00180297
0.00120678
-0.000110021
-0.00191212
0.000710496
0.000241102
0.000571474
-0.000171963
0.000487747
-0.000153201
0.000337963
0.000138694
0.000396129
-0.00390566
0.000863563
-0.00062545
0.00113145
-4.34528e-05
0.00112376
0.000739263
0.000163836
0.00757979
-0.00212027
-0.000159427
-0.00142475
0.000224486
-0.000853162
0.000149064
0.000704098
-0.00032741
-0.000753444
0.000381328
0.00102143
-0.00395815
5.24904e-05
-0.000628585
0.000486953
0.000141632
0.000820501
0.000792503
-5.32396e-05
0.00360238
0.00397741
-0.00120859
-0.000420148
0.000841231
0.000282089
0.00115728
0.00135
-0.000226241
-0.0011552
-0.000195906
9.84876e-05
-0.00124732
0.000813163
-0.000239543
-0.00057362
0.000877371
0.000781728
-0.000895208
-9.43152e-05
0.000311545
0.00117669
-0.000155263
0.000672027
-0.00060076
-7.12669e-05
0.000214744
0.000509638
-0.0013285
0.000897841
0.00043066
0.000724265
6.82378e-05
-0.00392862
-0.000771044
0.000433991
-0.00151595
0.000264994
0.00059857
-0.000600212
0.000586525
1.36866e-05
-0.00154544
-0.00118111
0.000427664
0.00086591
-0.000624808
0.00111587
-0.00121446
-0.000210283
0.000950449
0.000670244
5.40211e-05
-0.00395815
-0.000585933
0.000492706
9.32275e-05
0.000583533
0.000229631
0.000741123
-0.000157591
0.000740541
-0.00051091
-0.00157695
0.000845944
-2.54425e-05
-0.000335019
0.00145089
7.18147e-05
0.00120167
-0.000251219
0.000853427
-0.000588433
-5.39756e-05
-0.00042076
-0.00410851
0.000150364
0.000909742
-0.000614402
0.00121329
-0.000598893
0.000700698
-3.04544e-05
5.91797e-07
0.00105281
0.000287746
-0.000459709
0.000626366
0.000866649
-0.00111824
4.39195e-06
0.000790203
-0.000320261
0.000792704
0.000333786
-0.000948188
0.00110479
0.000557051
-6.43448e-05
-0.00131706
0.000102595
0.000987344
-0.00122939
0.000242045
0.000549899
0.000150799
0.000214776
0.000525765
-0.00134955
9.21114e-05
0.000183019
0.00026581
-0.000448829
0.000140364
0.000393054
0.000163997
0.000149064
0.000980376
0.000232919
0.00120548
-0.000338835
0.000731757
6.09465e-05
-0.00410851
0.000626665
-0.000411921
0.000604892
-0.000533078
0.00143099
-0.000450614
0.000280077
0.000573349
0.00151762
-0.000704098
0.000699326
-0.000473871
0.00157866
-0.000445987
-0.00100308
-0.000167853
-0.000584582
-0.00271863
-0.00138988
0.000667126
-0.000117228
0.000884299
-0.00125555
-0.000289894
-0.000643043
0.000976829
0.000399198
-6.04334e-05
-8.58211e-05
0.000556422
-0.000470601
0.000632612
0.000731613
0.00070085
0.000785779
-0.000210232
0.000308719
4.97277e-05
0.000393396
2.6299e-05
0.000741685
-0.0011294
0.00080274
-0.000381881
0.000932068
-0.00112797
0.00107038
0.000754852
0.000660019
-0.000445244
-0.000489891
-0.00045342
-0.000471488
0.000490488
-1.89996e-05
-0.000164683
0.000347702
0.000203315
-0.00121492
0.000918091
0.000518875
-0.000125821
0.000840846
0.000666129
-0.000870568
-0.00271863
-0.00039728
0.000426409
0.000240718
-0.000442222
-0.00092527
-0.00119366
-0.000123398
-0.00313927
0.000420635
0.00121777
-0.000486155
0.000519071
0.000627729
0.00015805
-0.00089696
-0.000172298
0.000296594
0.00022228
-0.000851951
0.00108487
0.000478293
-0.000241476
0.00072843
0.000215233
-0.000858276
0.000813441
-0.000533363
-0.000186167
0.000124879
0.000901793
0.00146002
-2.90299e-05
-0.000166256
0.000454001
-0.000624802
0.00154289
-0.000464449
0.000422474
4.19751e-05
0.000801283
1.45774e-06
0.00143824
2.17796e-05
8.49337e-05
-0.00120174
0.000110893
0.00017673
-0.000329931
0.000626136
-0.000199727
-0.000164823
0.000350499
-0.000185676
-0.00146583
0.000692946
0.000629583
0.000592967
0.000778528
0.000599128
-0.000155275
0.000198579
0.00046144
0.00074653
0.000445528
-0.000687004
-0.000532825
9.63061e-05
0.00111233
-0.00142045
0.000308126
0.000519663
2.60387e-05
-0.00074007
-0.00119066
-2.99791e-06
0.000133051
-0.000386648
0.000285598
0.00011833
-0.000283153
0.00103732
0.00100216
-0.000997766
0.000472944
-0.00017635
0.000350361
0.000533909
0.000244619
0.000302482
0.000323654
0.00090458
-0.000117062
0.000171773
-0.00027944
0.000346704
0.000301942
0.000511499
0.000800007
-0.000584774
-0.000270973
0.000637719
0.000648011
-0.000388126
-0.00012466
0.00030139
-0.00039888
0.000361192
-0.000545193
0.000686825
0.00114061
-5.57364e-05
0.000885743
0.000999099
-0.00116695
-0.000418363
0.00162596
-0.00120759
0.00116645
-0.000573481
0.000503299
-0.000418365
0.000105793
3.68966e-05
0.000200813
0.000272131
-0.000732429
0.000857307
0.00111158
0.00063384
-0.000286138
-5.48383e-06
0.000653361
7.1059e-05
0.00058564
-0.000387061
0.000571509
-0.000269027
0.000774626
0.00187492
-0.000436685
0.000612815
-0.000532586
9.13332e-05
0.000535332
-0.000490257
0.000373208
0.000895208
-0.000895055
6.75778e-05
0.000228262
-0.000311859
0.000338159
0.000454694
0.000193316
0.000183722
-0.000128875
0.000500663
0.000495587
0.000594492
0.00112996
0.000744968
-0.000127247
0.000247192
-9.10585e-05
0.00089798
-0.000176359
0.000294688
0.000436318
0.000597285
-0.000311687
0.000324042
0.000450585
-0.000404473
0.000344039
3.48446e-05
-0.00125566
6.49967e-05
0.000176024
-0.000941104
-0.000971012
0.000900323
-0.00108649
0.0006814
-0.000379458
0.000286883
0.00360238
0.000565514
-0.000215154
0.00181478
-0.00106695
-0.000747828
0.000209158
-4.32804e-05
0.00041573
-0.000214917
9.16933e-05
-0.000268052
0.000332371
0.000834076
0.000559145
0.000180851
0.000390658
0.000242128
-0.000408384
0.00155379
-0.00135047
0.000932995
-7.56877e-05
-0.000150641
-0.000276639
0.00042728
-0.000561188
0.000877259
0.000177978
0.000407663
0.000599863
0.000352379
-0.000337774
0.00033229
0.00144392
-0.000332341
-0.00131775
-0.000148078
-0.00102268
0.000850378
-0.000234401
0.00030546
-0.000500545
0.000290313
0.000279376
0.000133335
-0.000143599
-0.000114548
0.000251214
-0.000136666
0.000647696
-0.000127337
0.00100723
0.000750816
0.000211292
-0.000962109
0.00100973
3.84261e-07
0.000123891
-0.000419391
0.000328332
0.000588815
0.000585973
0.000142456
0.000583947
-0.000390631
0.000121388
0.000294341
-9.74431e-05
0.000478293
0.000541309
-0.000294117
0.000737899
6.02871e-05
0.000389088
-0.000396731
-0.000858927
-7.53516e-05
0.000352473
0.00193391
-0.000803954
-0.000647876
0.000715453
-0.000214564
0.000100016
-0.000296061
0.000479783
0.00110222
-0.00121928
-0.000274478
0.000309323
0.000502885
0.000190061
0.000123399
0.000241989
0.000439411
0.000229622
0.000551026
-0.000341868
0.00050273
-0.000321879
0.000523574
-0.000466443
-0.000364594
0.000321314
-0.000175631
0.000267324
0.000819878
-0.000975153
0.000866959
0.000502436
-0.000324458
-6.47332e-05
-0.000984267
0.000798831
0.000964313
-0.000631942
0.000437178
0.000146769
-0.000339207
0.000515231
0.00043866
0.000209035
0.000272593
0.000160395
3.09821e-05
-3.23039e-05
-0.000431172
0.000303835
0.000550931
-0.000459598
-0.000438542
0.000294942
-0.00144115
0.000752274
-0.000148229
7.55828e-05
-0.000876743
0.00116256
-0.000285298
0.00193514
-0.00133528
0.000141116
0.000531015
-0.000251639
-0.000102839
-0.000270803
0.000716331
0.000830216
9.0024e-05
0.000531554
-0.000306217
0.000306601
0.000655104
-0.000156721
0.00039885
-0.000798797
0.000723109
-0.00038157
0.000306219
-0.00021708
0.000277367
0.00165916
-0.000651931
0.00100197
-0.00113084
0.000584666
0.000236897
0.000553085
0.000525178
-0.000295557
0.000183311
3.10619e-06
0.000448779
0.000962235
0.000140577
-0.000129956
0.000229973
-8.3343e-05
0.00174553
-0.0016122
0.00085521
0.000284058
0.000272429
0.000897762
-0.00102501
0.000377562
1.73039e-05
-6.02565e-05
6.73101e-05
0.00043542
0.000211603
-8.82034e-05
0.000266389
0.000697925
5.02442e-05
0.000362518
-0.000156181
0.000565769
-0.00032378
-0.000331273
0.000491667
0.000599693
0.000315949
0.000186487
-0.000330098
0.000297794
-0.000250616
0.000281598
0.000478504
-0.000749307
0.000242478
8.52741e-05
-8.45226e-05
0.0020237
-0.00115674
-0.000427987
0.000279758
-0.000911289
-0.000111387
-0.000199916
0.000975268
-0.000365364
0.000512134
0.000496465
-0.000893196
-0.000124152
0.000490049
-0.000217456
0.00010331
-0.000168709
0.000244292
-0.000389945
0.000287105
0.000211877
0.000283247
0.00012903
0.000124261
0.000226866
0.000489465
-0.000133889
-2.34969e-05
8.16465e-05
0.000816162
0.00023841
0.000113189
7.34942e-05
0.00052625
-0.000652257
-9.14107e-05
2.67513e-05
0.000688426
-0.000164766
-8.37257e-05
0.000493691
-0.000256794
0.000973448
-0.00107089
0.000478061
-0.00029475
0.000388509
-7.69635e-05
0.000275646
0.00138292
-0.000552702
-0.000182258
-0.00017668
-0.00027738
0.000280487
-0.000284798
0.000425915
0.000388754
0.000198135
2.569e-05
0.000103011
0.000259782
-0.000976228
0.00069093
0.000148878
-0.000273538
0.00204571
-0.00146105
-0.000515232
-0.000345242
0.000284986
6.12637e-05
0.000934834
-0.000179982
0.00015472
0.000209535
0.000730987
0.000146788
-0.00140932
0.00126125
0.000126303
-0.000185875
9.76716e-05
5.17602e-05
5.40332e-05
-0.000253119
0.000420962
-0.000353651
-0.000931967
0.000732051
-0.000202928
0.000253172
-0.000579494
0.000438861
0.00110467
-0.00116941
-0.0002513
0.000324794
0.000249355
-0.000100477
-4.74481e-05
0.000625356
0.000232328
-0.00128389
-0.000157256
4.21725e-06
0.000394879
0.000117255
0.000506338
0.000190283
0.000375486
-1.43801e-05
0.000117391
0.000732145
0.000243123
0.00185666
-0.00100145
0.000433516
-0.000515276
-0.00029786
0.000274363
0.000561196
3.84969e-05
-7.73911e-05
0.000313034
-2.97869e-05
0.00011008
0.000223944
0.000365389
-0.000153512
-0.000314748
0.000455325
-0.000390169
0.000266017
-0.00116728
0.000115515
4.1364e-05
3.73801e-05
-0.000103064
0.000812839
0.000420966
-0.000141208
0.000699918
0.000236546
0.000462421
-0.00022401
-0.000230696
0.000257447
-0.000352825
0.000269099
0.000204187
-0.000360908
-0.000694662
0.000611319
-1.73737e-05
-4.66694e-05
0.000597601
0.0002562
-0.000131146
0.000212793
0.000205627
0.000184459
0.00023607
0.000458329
-0.000260194
0.000195109
-9.7437e-05
-2.61678e-05
-6.78392e-05
0.000183131
0.0002506
0.000249437
1.03454e-05
-5.15618e-05
0.00208
-0.00139158
0.000163579
-0.000133136
-0.000311617
0.000264169
0.000111166
-0.0001639
0.000225164
2.24763e-05
-0.000253113
0.00025733
0.00182652
-0.00130027
0.000333276
0.000418998
-6.93053e-05
0.000618957
0.000949951
-0.000375151
0.000478461
0.000175653
3.38821e-05
0.000340808
-0.00010848
-0.00116143
0.000608732
-0.000470504
-0.000338741
0.000455996
0.000442994
-0.00031669
-3.72533e-05
0.000473917
0.000436509
-0.00028972
0.000889642
-0.000281166
-0.000608476
0.00158759
-0.000856602
0.00021965
0.000362139
0.000614372
-0.000412681
-0.000353954
0.00025089
6.39626e-05
-0.000834405
0.000581286
0.000187296
0.00103775
-0.00112228
4.33389e-06
-0.000270381
0.000253007
0.0019086
-0.00147508
0.000266002
-0.000150487
0.000384558
-0.000118541
0.000555656
0.000120015
3.47054e-05
0.00024335
0.000431237
-0.000194692
-8.48547e-05
0.000586137
-0.000191838
0.000233202
4.88923e-05
0.000185999
0.000207227
0.00047151
0.000418132
-0.000318795
0.000250955
0.000434337
-0.00022871
-0.000174193
7.67556e-05
-0.000223086
0.00048069
-0.000922913
-3.31362e-05
-0.00027538
0.000385461
0.000657109
0.000300261
-6.41908e-05
8.0174e-05
0.000895055
-0.000416762
9.77898e-05
1.96009e-05
0.000544125
-0.000353842
0.00197295
-0.00127303
0.000174143
-0.0001468
-0.000934843
0.000251764
0.000683079
-1.3051e-05
0.000104252
-5.4626e-05
0.000119818
-0.000152184
0.000361421
9.45752e-05
9.1809e-05
0.000153897
0.000424108
-0.000260529
0.000608334
1.04257e-05
-5.30726e-05
4.26469e-05
-2.46365e-05
-0.000686825
0.000829281
-0.000214848
0.000237325
0.000191781
3.33261e-05
0.000581372
-0.000282241
0.000244988
-0.000144267
0.000348454
0.000318008
0.000202698
-0.000892349
0.000689651
0.00045659
-0.00101558
0.00090419
0.000132495
0.000103004
-0.00104411
8.60408e-05
0.000921438
-0.00101285
0.000134388
0.000447865
-0.000494534
0.00207527
-0.00145632
-2.92338e-05
0.000302981
-0.000115686
-0.000320332
0.000235477
-0.000233433
0.000237766
0.000246589
-2.69392e-05
-0.000349724
0.000231183
-0.00029993
0.000411096
-9.88336e-05
-0.000276208
0.000765673
0.000407297
-0.00020007
0.000231876
0.00132284
-0.000714105
1.83535e-05
-6.93764e-05
0.000182399
0.000204158
9.88686e-05
0.00112149
-0.00114766
0.000577205
-0.000103288
0.000145717
-0.00130392
0.000979377
-0.00105677
1.88627e-05
0.000374151
-0.0001308
0.000977184
-0.000395898
0.000721627
0.000156181
-0.000106709
0.000183465
0.00050668
0.000178587
-0.00024767
0.000234619
0.00060019
0.000466235
-0.000286942
0.000223131
6.38113e-05
0.000221967
-0.000134604
0.000198567
0.000292825
-0.000288636
0.00023401
-0.000976129
0.000842241
0.00191334
-0.00125623
0.000528295
-0.000160298
8.55308e-05
0.00040563
-0.000231487
3.89203e-06
0.00102076
-0.00107232
0.00169855
-0.00111241
0.00044542
-1.04258e-05
6.4459e-05
-0.000161011
0.000209904
0.000271396
-7.96146e-05
-0.000244273
0.000338848
0.000190714
-4.71508e-06
-4.36483e-05
0.000246871
-7.26945e-05
0.0002359
-0.000144091
0.000102939
-0.000706201
0.000483115
0.000163774
-0.000281109
0.000400927
0.000425517
-9.90353e-06
0.000405173
-0.00030092
0.000145101
0.00015571
-0.000349516
0.00042969
0.00188881
-0.00128047
-0.000184029
0.000217355
-0.000317182
0.000218348
-0.00025745
0.000228216
-8.17048e-05
-7.88839e-07
-0.000316869
7.25965e-05
0.00198898
-0.00140761
0.00511438
-0.00511438
-2.76346e-05
-6.4459e-05
0.000101839
0.000341211
-0.000110028
-0.000290149
0.000220773
0.00355905
-0.000165136
5.84268e-05
0.00021041
-2.28314e-05
-0.000270758
0.000356799
4.88606e-05
0.000895214
0.000391678
-0.00025729
0.000231397
-4.89988e-05
0.000765687
6.15799e-05
0.000378157
-0.000173999
7.07635e-05
-0.000203002
0.000221355
0.000149457
4.43938e-06
0.00112514
-0.00115828
8.83035e-05
-0.000177905
0.000178087
0.000964157
-4.27193e-05
0.000219996
-0.000121128
0.000382498
-0.00020391
0.000144742
-5.61395e-05
0.000151783
-0.000117357
0.00053266
3.75556e-05
-0.00011364
0.00020226
-8.86202e-05
-0.00021819
0.000222082
-5.14193e-05
0.000632574
-0.000214118
0.000416762
2.99563e-05
-0.000138941
-0.00088084
0.000747704
2.58748e-05
6.80907e-05
-3.34718e-05
0.000171259
-0.000315526
-0.000262663
0.000219015
0.00015101
0.000686469
0.000110569
0.000100006
-0.000229583
0.000219679
0.00194385
-0.00134366
0.000870567
-0.000389877
0.000586845
-0.00013898
0.00108704
-0.000580365
0.000372939
0.00138496
-0.000918723
-0.000293971
0.000379501
7.59055e-05
-0.000417105
0.000435968
0.000243709
-8.79987e-05
-3.60085e-05
1.43529e-05
0.000128408
4.08732e-06
-0.000287494
0.000205789
-3.44471e-05
-0.000806349
0.000410451
0.000190852
-2.70777e-05
-0.000310062
0.000200034
-0.000323235
-9.17133e-05
-7.19399e-05
0.000272547
0.000282496
-0.000282496
0.000132847
0.000376823
-0.000231722
0.000141853
-6.67211e-05
3.16542e-06
0.00113119
-0.00113198
5.28192e-05
1.25849e-05
-0.000237184
0.000214352
-9.18787e-05
0.000853137
-0.000761259
0.00169902
-0.0012735
0.000126352
0.000663376
0.000329464
-0.000119054
-7.50105e-06
6.28282e-05
-0.000263719
0.000207579
0.000175028
-0.000116601
0.000356495
-0.000178408
0.000550558
-0.00024483
0.000317427
-0.000139676
0.000188537
0.000190523
0.000119533
0.00219467
-0.00142898
-0.000455994
0.00073849
0.000291415
-0.000341739
-0.000101839
0.00012144
0.000174455
-1.75044e-05
0.000152584
0.000213367
-6.15839e-05
-0.000334425
0.000396005
0.000210135
-0.000139371
-4.47035e-05
-0.000161199
0.000198754
0.000376905
-0.000288602
8.11326e-05
0.000125368
-0.000268151
0.000336242
0.000282323
0.000483349
0.00188394
-0.00135128
-0.000179804
0.000205679
-0.000567475
-0.000380713
0.000158098
-1.3356e-05
0.000357132
-0.000206121
0.00040894
-0.000240907
0.00020646
-0.000281239
0.000189525
0.000131021
0.00156543
-0.000932859
-0.000195151
0.000209504
-2.70877e-05
-7.54493e-05
-5.85662e-05
-3.85992e-05
0.000301995
-0.000130736
0.000299904
-9.98694e-05
0.000372069
-0.000272063
0.000744287
4.50767e-05
0.00018085
0.000194745
-0.000118839
-0.000207166
0.000210332
-0.000261046
0.000194325
0.000362872
-0.000252303
-2.65545e-05
0.000886184
-0.000196534
-0.000852124
0.000691826
3.53522e-05
-0.000318943
0.000125409
0.00054028
-0.000215858
0.000208356
2.73378e-05
0.00106269
-0.000158369
4.1767e-05
0.000302287
7.46185e-05
5.74565e-05
-8.77659e-05
-5.34669e-05
0.000182221
-4.03676e-05
5.17663e-05
4.92754e-05
1.89504e-05
-0.000386572
0.000399157
-0.000172458
0.00110001
-0.000727074
0.000554951
0.000331233
-0.000221202
0.000203697
0.000120637
-0.000292846
0.000355674
0.000329349
-0.000154894
0.000181291
0.00131475
-0.0010422
0.000150941
-0.000125003
1.05276e-05
-0.000241066
0.000196362
0.00087327
-0.000462819
-0.000500584
0.000361603
0.000292905
0.00118575
0.000136449
0.00135597
-0.000692596
0.000334161
-0.000181577
2.33779e-06
0.000349608
-0.000230075
-0.00111498
0.000624975
0.000187865
5.53733e-05
4.12469e-05
8.34672e-05
0.000138319
-5.47171e-06
0.000124963
-5.52589e-06
0.000869524
0.000697183
-3.46059e-05
0.000178041
-9.69083e-05
9.433e-06
-0.000317212
9.08094e-05
4.33959e-05
-0.00025514
0.00017969
0.00158198
-0.00129056
-0.000272126
0.000172257
-8.26009e-05
0.00012804
-1.28451e-05
-0.000663353
0.000340118
0.00019373
-6.83617e-05
-0.000223222
0.000196668
0.00132454
-0.000266601
-6.08148e-05
-0.000254413
9.73054e-05
0.000182791
-0.000147439
0.000287431
-0.000106581
5.92017e-05
-0.000164847
0.000192185
-0.00010442
0.000105964
0.000423112
-0.000444339
0.000385773
-0.000237938
0.000184471
0.000230699
0.000155144
-2.41234e-05
-0.000325218
0.000370294
0.000114776
-1.95249e-05
-0.000179708
0.000198658
0.000162428
0.000332222
-0.000206812
-0.00012144
0.000125527
-0.000272987
0.000322262
-0.000191735
0.000202263
-4.15754e-05
0.000952311
-0.00099503
0.000309453
-0.000158512
-0.000200744
0.000203082
-0.000660934
-0.000261978
-8.90097e-05
0.000159437
-7.0427e-05
0.000170418
-0.000128651
0.00111516
-0.000574877
0.000147101
3.04568e-05
-0.000273646
0.00014291
-0.000206787
0.000201261
0.000307595
-0.000250139
0.00099503
-0.0010285
-0.000952311
0.000900892
-0.000222142
0.000187536
0.000127877
-4.51826e-05
0.000102146
0.000168687
-4.80498e-05
1.79443e-05
-0.000209824
0.000196979
-0.000137557
0.000189324
-0.00106451
0.0010285
-0.000246598
0.000163997
1.61759e-05
5.33948e-05
-6.95707e-05
0.000173984
-0.000118611
0.000260803
-8.85463e-05
0.000355076
-0.000280458
-6.69073e-05
0.000100325
0.00034881
-0.000265343
1.04257e-05
-0.00017763
-2.54745e-05
0.000861787
-0.000568882
1.24768e-05
-0.000231951
0.000171136
0.000154222
6.25283e-05
-0.000294131
0.000337527
0.000134712
0.000974779
-0.000793488
0.000119479
0.0003117
-0.000183661
6.92281e-06
-0.00101169
0.000422562
3.46084e-05
0.000338575
-0.000247766
-0.00036403
0.000373463
1.51896e-06
2.29791e-05
-4.74804e-05
-6.74247e-05
0.00111096
-0.00106971
-0.000136142
0.000112018
-3.70556e-06
2.8131e-05
-1.11786e-05
0.000157981
-9.8779e-05
-0.000209948
0.000190423
0.00101169
-0.00103878
-0.000218212
0.000176636
-8.56324e-06
-0.000900892
0.000828952
-0.000509206
0.000355884
0.000153322
0.000104888
-0.000179603
6.26452e-06
-0.000294337
4.41988e-05
-0.000114811
-0.000702999
0.00024018
-7.16662e-05
0.000325221
-0.000227916
0.00033504
0.000362143
0.000284029
-0.000136928
-0.000111218
0.00103878
2.39133e-05
-3.06752e-05
0.000509206
-0.000934834
0.000425628
0.000145238
-3.04621e-05
0.000125516
0.000804218
-0.000573519
-1.29689e-05
-0.00036288
-0.000155014
2.63631e-05
3.64263e-05
9.71887e-05
6.07387e-05
0.000289146
-0.000161269
-0.000792426
0.000595892
-0.000687312
6.83527e-05
7.32325e-05
3.937e-05
-0.000318261
0.000348718
3.43093e-05
0.000258711
-0.000115801
-0.0001753
0.000193245
-0.000125527
0.000120056
-0.000207352
0.000181878
-0.000235976
0.000147429
-0.000223572
0.000156665
-2.39132e-05
0.000160362
-0.000186985
0.000199462
-7.19787e-05
-0.0001006
0.000790353
-0.000828952
-0.000278873
0.000313481
0.000906452
-0.000803448
-5.24356e-05
-0.000195984
0.000202907
0.000140557
-7.8029e-05
7.7455e-05
-0.000406195
0.000361012
0.000105485
0.000184259
-0.00016128
0.000308808
-0.000206662
-0.000202109
0.000203628
-0.000211778
0.000164298
0.000451483
-0.000543361
0.000229341
0.000302398
-0.000258199
-0.000205486
0.00020178
0.00055475
-0.000193147
0.000152865
-5.25396e-05
1.9266e-05
0.000692829
0.000907298
-0.00029569
0.000323821
-1.69287e-05
0.00073648
-0.000601767
0.000416762
0.000247671
-9.34494e-05
-3.51419e-05
-0.000206039
0.000197476
0.00081839
-3.27315e-05
8.11984e-05
4.17783e-05
-0.000160362
0.000583474
-5.70082e-05
-0.000202262
0.000171587
0.000136453
-0.000684504
0.000115622
2.35255e-05
-0.000290937
3.27376e-05
1.77908e-05
0.000172578
-0.000146215
8.08928e-05
8.95855e-06
0.000300337
0.000337912
-0.000277174
0.000289798
-0.00018491
-0.000126684
9.62222e-05
-1.46659e-05
-0.000345224
0.000351488
-0.000203924
0.000190955
0.000265462
-0.000139946
6.25937e-06
0.000829281
0.000121783
3.47781e-06
4.69753e-05
7.97485e-07
0.000318624
-0.000245391
0.000685932
0.000688304
-0.000755729
0.000776829
-0.000221877
0.00193765
-0.00103119
0.000104193
0.000330792
-0.000262439
-1.85724e-06
0.000495663
-2.03846e-05
0.000121098
-6.59447e-05
-5.5153e-05
-0.000123717
0.000160143
-4.25942e-06
1.12981e-05
-0.000444324
-0.000213238
0.000141259
-0.00038141
0.000131708
-3.45193e-05
0.000143455
-0.000104085
0.000403297
-0.000582899
-0.000203173
0.000150737
3.49399e-06
-5.65733e-05
-0.000141947
0.000176257
7.91684e-05
0.000186454
3.66773e-05
0.000304129
-0.000226674
0.000303115
-0.000270378
-0.000120056
0.000108877
5.36182e-05
-0.000583474
0.00100604
0.000223648
-7.62183e-05
-0.000311812
0.000331078
0.000268818
-0.000163333
-3.88747e-05
0.00032605
-0.000279075
-6.44764e-06
5.61842e-05
0.0010812
-0.000629717
8.31357e-05
4.30687e-05
-0.000287886
0.000311412
1.20092e-05
-0.000233542
0.000117741
-0.000199364
0.000182435
0.000130198
-0.000194976
0.000159834
0.000277751
-0.000445876
0.000331065
0.000317958
-0.00026434
-0.000170223
5.87381e-05
-0.000158742
1.25271e-05
-0.000300299
0.00031809
0.00133981
-0.000392183
-2.33886e-05
-0.000585978
-1.57888e-05
-0.00111016
0.000125145
-8.33671e-05
0.000293401
3.26496e-05
8.39082e-05
9.60417e-05
-4.26468e-05
1.52289e-05
0.000302629
-0.000246445
3.88832e-05
-8.40931e-06
0.000241558
-0.000119775
2.3023e-05
-0.000470356
1.97382e-05
0.000287539
-0.000206646
-8.4864e-05
1.81953e-05
0.000101612
-9.70886e-05
-0.000136372
0.000476041
-0.00053305
-5.51734e-05
-0.000374338
0.000341606
-0.00101169
-0.00019097
1.75146e-05
-0.000288074
0.000320723
0.000246586
-0.000142393
3.8289e-05
0.00101715
6.08647e-05
-0.000192571
0.000172187
1.11126e-05
-0.000579537
0.000216657
0.000313447
-0.000274564
-0.000310155
0.000322164
0.00123538
-0.00100604
-0.000509206
-0.000113203
7.86836e-05
0.000350055
-0.000893416
2.53734e-05
-1.69807e-05
-0.000192758
0.000136185
-0.000328851
0.000332345
0.000201317
-6.00575e-05
0.000286344
-0.000227606
2.22703e-06
8.3253e-05
0.000218052
-0.000100311
-0.000828952
-2.28496e-05
7.93482e-06
0.000867702
-0.000517647
0.000125099
2.10605e-05
-4.20212e-05
-0.000173493
0.000184791
0.000105469
-6.23999e-05
-0.00018479
0.000193749
0.000269031
-0.000185895
-0.000108877
9.42112e-05
-0.000421906
-0.000718641
0.000496764
-0.000193749
0.000200008
-0.000476614
0.000283467
0.00103119
-0.000753442
3.98995e-05
-0.000185724
0.000146849
-0.000685932
0.000585332
-0.000200008
0.000203486
0.000292477
-0.000254188
-0.000203486
0.000204283
-0.000279687
0.000389877
-0.00024155
-0.000148327
-0.000204283
0.000202426
-1.01361e-05
-0.000519986
-0.000140948
1.79136e-05
0.000305127
1.55968e-05
-0.000202426
0.000198167
-0.000209887
0.000112798
0.000116526
-3.73581e-05
6.23848e-05
-7.96885e-05
-0.000292806
0.000315829
-2.58899e-05
-0.000318973
0.000330085
0.000248912
-0.000165004
0.000207126
0.000132456
-0.000339583
0.000223914
-0.000122302
0.000173493
-0.000160966
0.000324238
-0.000309009
-0.000122749
0.000268733
-0.000207868
0.000398699
-0.000414488
9.82765e-05
6.1353e-05
0.000119209
0.000237985
-0.000198167
0.000191719
-0.0002792
0.000117195
-0.000561519
8.15212e-05
-0.000183822
0.000160433
4.11269e-05
2.21014e-05
0.000273709
-0.00023381
6.30166e-05
-0.000134351
-0.000319682
0.000321909
8.61694e-05
-4.54928e-05
-4.06766e-05
0.000298336
-0.000272963
8.72817e-05
-0.000468692
1.9521e-05
-0.000325552
0.000333486
2.48222e-06
0.000227662
-0.000144409
0.000160966
-0.000143451
-0.000195173
9.48627e-05
-0.00018088
0.000120822
0.000143451
-0.000125256
0.000249886
-0.000187501
-0.000145549
0.00106515
1.23201e-05
-0.000489529
1.91733e-05
0.00034702
-1.46752e-05
-0.000191719
0.00018331
5.26515e-06
-0.00018806
0.000108371
-4.46945e-05
0.000125256
-0.000105518
0.000201414
-0.000103137
-1.16353e-05
6.82048e-06
6.26587e-05
-8.23754e-05
-0.000495618
-6.29611e-05
-0.000401205
0.000316341
7.91113e-05
4.53369e-06
0.00036429
-0.000786196
0.00032417
0.000714538
-0.000350248
-5.95992e-05
2.37695e-05
4.20177e-05
0.000313933
0.000272963
-0.00025505
-0.00017486
0.000132838
0.000753442
-0.000515457
0.000179607
-8.47446e-05
0.000254332
-0.000213205
0.000196891
-9.42112e-05
7.72305e-05
0.000284555
-0.000676738
0.00020592
-0.000124399
-0.000372335
-0.000344863
-0.000290533
-0.000358739
-5.57488e-05
-0.000339566
0.000105518
-8.44576e-05
0.000229917
-0.0001669
9.75794e-05
-1.88958e-05
0.000184247
-0.000105135
-0.000173719
9.13432e-05
2.05225e-05
7.64702e-05
-2.80105e-05
6.02213e-05
-0.000321049
4.13618e-05
-0.000183309
0.000173173
6.1511e-05
-6.53471e-05
-0.000269048
0.000134697
-0.000167783
0.000104822
-0.000651379
0.000360847
-0.000330956
0.000333439
-0.000585332
0.000462583
0.000209079
-0.00014642
5.98475e-05
-0.000329275
0.0003146
4.24152e-05
0.000255049
-0.000235528
0.000163099
-8.6629e-05
0.000190898
-0.000246647
8.44575e-05
-6.23562e-05
-4.69608e-05
-7.60262e-05
5.7964e-05
-7.36591e-06
-0.000173346
0.000147456
-0.000158612
7.38678e-05
2.53012e-06
0.000767979
-0.000405836
0.000389877
-0.000162644
0.00011795
0.000234276
-0.000192259
0.000187865
-0.000126354
0.000338339
-0.000333074
-6.72691e-05
0.000515457
-0.000318566
-0.000313933
0.000326254
-0.000153665
8.83179e-05
-0.000106881
0.000166728
-0.000326253
0.000333074
6.23562e-05
-3.85867e-05
0.000100646
-3.92928e-05
-0.000154615
-0.000338339
0.000342873
4.21785e-05
-7.81493e-05
0.000142704