/*--------------------------------*- C++ -*----------------------------------*\
  =========                 |
  \\      /  F ield         | OpenFOAM: The Open Source CFD Toolbox
   \\    /   O peration     | Website:  https://openfoam.org
    \\  /    A nd           | Version:  8
     \\/     M anipulation  |
\*---------------------------------------------------------------------------*/
FoamFile
{
    version     2.0;
    format      ascii;
    class       volVectorField;
    location    "0.1";
    object      U;
}
// * * * * * * * * * * * * * * * * * * * * * * * * * * * * * * * * * * * * * //

dimensions      [0 1 -1 0 0 0 0];

internalField   nonuniform List<vector> 
1924
(
(0.64436 -0.200305 -1.70216e-19)
(0.79657 -0.734929 -9.70057e-19)
(0.0876217 0.338178 -2.15251e-19)
(0.198348 0.0898489 3.6778e-20)
(0.620342 -0.0942262 -2.39195e-18)
(0.0272104 0.423196 7.2662e-19)
(0.291532 0.270729 3.05688e-19)
(-0.0279489 0.55535 -2.03047e-19)
(-0.14862 0.357089 2.97257e-20)
(0.309644 0.0314601 -4.26493e-19)
(-0.233516 0.516254 9.09989e-20)
(-0.153568 0.502022 -5.58286e-19)
(0.4062 0.232856 1.61005e-19)
(-0.298472 0.65441 6.62096e-19)
(-0.362282 0.128352 1.1171e-19)
(-0.335625 0.126523 -7.35862e-20)
(0.351272 0.234655 9.53718e-20)
(-0.471446 0.613106 1.93306e-18)
(0.191731 -0.813824 2.38363e-18)
(-0.564008 0.559006 6.1835e-19)
(0.488547 0.691406 2.42001e-18)
(0.0495729 0.208636 -3.42893e-19)
(0.240687 0.0987232 -4.32879e-19)
(-0.683522 0.480717 8.41164e-19)
(0.0382242 0.201031 -3.07077e-19)
(-0.0378586 0.214358 -4.42797e-20)
(-0.0496014 0.231239 -1.85988e-19)
(0.70556 -0.757198 5.01357e-18)
(0.194044 0.756783 -5.82164e-19)
(0.150993 -0.471275 -1.09112e-19)
(0.255838 0.146975 -3.29656e-19)
(0.0184565 0.207528 2.21237e-19)
(0.449172 0.767191 1.4931e-18)
(0.33465 0.161992 -7.99815e-20)
(0.353358 -0.645609 -1.18967e-17)
(0.202423 0.0972207 -6.07166e-19)
(0.0119938 0.226699 5.06545e-19)
(0.0675179 0.568124 -1.00441e-18)
(0.11974 -0.46175 -3.68985e-19)
(0.287484 0.171828 -2.03734e-19)
(-0.00941282 0.228652 -2.31179e-20)
(0.536755 0.426463 9.78111e-19)
(-0.016083 0.215632 -8.1966e-20)
(0.277582 0.0717227 1.01256e-19)
(0.635924 -0.535112 1.27094e-18)
(0.341637 1.00024 4.68794e-19)
(0.463049 -0.692178 5.47499e-18)
(0.492209 -0.620816 -2.89894e-19)
(-0.0775452 2.56933 1.61609e-17)
(0.0660755 1.38547 4.38633e-18)
(0.145879 -0.113538 -7.35428e-19)
(0.419632 0.353155 4.49994e-19)
(0.0676029 0.203685 1.91142e-19)
(0.0371112 -0.139796 -5.83686e-19)
(0.443848 0.653177 8.2946e-19)
(0.570968 -0.497058 -5.69851e-19)
(0.27442 -0.752506 1.57922e-18)
(0.611381 -0.548264 6.64056e-19)
(0.716189 -0.602339 1.19449e-18)
(-0.120607 0.181183 3.91777e-20)
(0.247142 0.0248028 -6.64515e-20)
(-0.325333 0.155068 -2.79641e-19)
(0.282452 -0.0105223 -1.30513e-20)
(0.121398 -0.427477 -1.81216e-19)
(0.0478351 -0.0880334 6.4822e-20)
(0.466896 -0.646896 -1.16993e-19)
(-0.214063 0.172013 2.51653e-19)
(0.180432 0.124515 4.01897e-20)
(0.176273 0.921172 5.39892e-20)
(0.23277 -0.104451 -8.25671e-19)
(0.112696 0.558817 8.97127e-19)
(-0.296063 0.14662 -4.01469e-19)
(0.111752 -0.439568 -4.17138e-19)
(0.171052 -0.50362 -9.98447e-20)
(0.135734 -0.526337 -7.96976e-20)
(0.124405 0.384497 5.55644e-20)
(0.35949 -0.727457 5.68247e-20)
(0.15006 -0.557576 -1.14467e-19)
(0.416161 -0.616516 5.86313e-20)
(0.226288 -0.0489825 -2.52077e-19)
(0.0338318 -0.56855 1.40466e-18)
(-0.0696939 0.227562 -2.97072e-19)
(0.301835 -0.364138 9.68706e-19)
(0.360602 0.660805 2.18414e-18)
(0.484996 0.448743 5.32017e-19)
(0.158755 0.127584 5.61598e-20)
(0.654895 -0.59793 7.89947e-19)
(-0.389095 0.154858 2.68092e-20)
(-0.181603 1.76575 1.00277e-17)
(0.174641 0.650138 9.96922e-19)
(-0.20957 0.201025 9.15821e-19)
(-0.0736771 0.21068 1.62902e-19)
(0.341709 0.783971 4.45091e-19)
(0.220036 0.555547 1.08962e-19)
(0.277582 0.512135 6.70885e-19)
(0.00451708 -0.0739684 -1.89726e-21)
(0.331044 -0.752965 1.83987e-19)
(-0.0540794 -0.648699 2.27739e-18)
(-0.117863 0.195514 2.80393e-19)
(0.13016 0.448504 -2.92826e-19)
(-0.0296621 0.633572 -2.69671e-19)
(0.332923 0.521232 9.88271e-19)
(-0.125051 0.211918 1.54654e-19)
(-0.0909295 0.2066 8.9642e-21)
(0.182628 0.521805 5.47593e-20)
(0.115279 -0.651847 2.07002e-18)
(0.0282655 0.716973 -1.80716e-19)
(0.188322 0.447298 1.20691e-19)
(-0.109787 0.168174 -1.3805e-19)
(0.242135 0.695944 1.57382e-19)
(0.217837 -0.766531 2.79588e-19)
(0.131667 0.851993 5.17569e-20)
(0.208297 0.0387142 -2.79794e-18)
(0.222697 -0.414265 3.26823e-19)
(0.34471 -0.65549 9.43118e-20)
(0.138864 0.870124 4.32911e-18)
(-0.0255028 0.601573 -6.91172e-19)
(-0.316218 0.101916 3.28776e-21)
(0.0853256 0.12436 -4.35536e-21)
(0.308654 -0.724841 9.53312e-20)
(0.449954 0.55947 -3.22116e-19)
(1.69094 -0.458289 2.91457e-18)
(0.567461 0.942396 1.63166e-18)
(0.0673357 0.73846 6.53681e-19)
(-0.243456 0.152229 -1.01098e-19)
(0.114473 0.464692 -8.33562e-19)
(0.157429 0.368156 1.35936e-19)
(0.122157 -0.579032 -8.64419e-20)
(0.160325 0.707379 1.32563e-20)
(1.18637 -0.28209 -1.46448e-18)
(0.205035 -0.786528 5.06851e-19)
(-0.0103196 0.688647 -1.84795e-19)
(-0.0442577 0.361086 -2.20678e-19)
(0.289974 -0.406403 4.99164e-19)
(0.351012 0.38831 7.33871e-19)
(0.111174 0.557159 -1.70521e-19)
(-0.00426317 0.664892 -3.57164e-19)
(0.0391959 0.77109 -4.46049e-20)
(-0.673158 0.384458 7.05829e-19)
(0.203069 -0.12949 -5.29162e-18)
(0.573266 -0.614931 2.4354e-20)
(-0.269861 0.176476 1.65479e-20)
(0.497427 -0.584873 1.3137e-17)
(0.144465 0.945068 -4.34423e-19)
(-0.0644914 0.660451 7.93868e-19)
(1.10265 -0.334279 -4.71185e-18)
(0.158238 0.436207 4.45467e-19)
(0.157809 0.49299 4.8535e-19)
(-0.113125 0.154351 -1.44292e-19)
(0.07717 0.113146 -6.24565e-20)
(0.187052 -0.347785 8.88888e-19)
(1.25504 -0.00407529 -6.89119e-19)
(0.177583 0.397348 2.38406e-19)
(-0.0317489 0.654174 1.12141e-19)
(-0.0875651 0.628416 2.92663e-18)
(0.0921744 0.446076 -1.17593e-18)
(2.15343 -0.482324 5.95732e-18)
(-0.00525425 0.554398 -4.23728e-19)
(0.153522 -0.800755 8.75472e-19)
(0.533282 -0.184082 -1.47555e-18)
(0.214113 -0.444919 2.93352e-19)
(0.106998 0.300726 -4.2592e-20)
(-0.0630502 0.650989 -1.13279e-19)
(1.50858 -0.0225287 1.6821e-18)
(0.102961 -0.388964 1.12801e-19)
(0.0927876 0.527196 -5.97295e-19)
(0.0432156 0.464245 1.06934e-19)
(2.98233 -0.0904608 1.48482e-17)
(0.252778 -0.741218 2.29028e-19)
(0.100122 0.623702 -1.80428e-19)
(0.393299 0.881035 1.23368e-18)
(-0.128714 0.660883 6.90847e-20)
(0.0929855 -0.649135 1.04836e-18)
(-0.0975992 0.193978 1.21539e-19)
(0.546207 -0.575065 3.14914e-20)
(0.150188 0.355849 5.68055e-19)
(0.16779 -0.446086 6.15573e-19)
(0.0369452 0.511862 1.22769e-19)
(0.179699 0.0689048 -1.7177e-19)
(-0.0951434 0.611472 8.62583e-19)
(0.0508805 0.361319 -2.17007e-19)
(-0.32002 0.076366 2.7831e-19)
(0.219303 -0.568491 1.03106e-19)
(0.0281259 0.442094 -3.32128e-20)
(-0.180514 3.32856 1.85863e-17)
(0.750414 -0.713538 9.99947e-19)
(0.186096 0.376424 3.47724e-19)
(0.00248583 0.354414 1.85647e-19)
(0.19654 -0.786528 3.66992e-19)
(0.250196 -0.488587 1.05533e-20)
(0.160415 0.397918 1.87725e-19)
(-0.18517 0.650778 -2.17928e-18)
(0.121 -0.803701 1.05614e-18)
(-0.131468 0.613332 1.37832e-18)
(-0.0197507 0.451083 -1.49985e-19)
(1.15991 0.0221945 1.12371e-18)
(-0.0419671 0.341103 -1.47749e-19)
(0.132491 0.344927 1.22227e-18)
(0.100818 0.361856 -3.70904e-19)
(0.143617 0.312808 3.57181e-19)
(0.378272 0.957645 -1.42968e-18)
(0.731985 -0.791437 1.14068e-18)
(0.0369355 0.541537 5.57436e-21)
(-0.206875 0.63514 -5.01251e-19)
(0.381146 0.545278 -9.04151e-19)
(0.0377951 0.345398 -3.65411e-20)
(-0.152899 0.564777 2.19074e-19)
(0.214757 0.368086 1.68233e-19)
(0.211387 0.439725 -1.74831e-19)
(0.039851 0.324266 -5.08467e-19)
(1.65101 -0.00826154 1.30213e-18)
(0.0520561 0.629575 -5.32274e-19)
(-0.586202 0.259967 -3.90512e-19)
(-0.0302377 0.428003 -3.35228e-19)
(-0.00723792 0.33632 9.92484e-20)
(0.135399 -0.619597 4.11466e-19)
(-0.103902 0.145476 -1.08984e-19)
(0.140228 0.388093 1.59876e-19)
(-0.187551 0.564389 5.24151e-20)
(0.097924 -0.582969 3.94609e-20)
(0.106063 0.407831 -2.02431e-19)
(0.399311 -0.354322 1.35188e-18)
(0.0199008 0.512063 7.01607e-19)
(-0.527853 0.219047 -2.54975e-20)
(-0.245357 0.61644 3.24473e-19)
(-0.0482481 0.321148 -6.56766e-20)
(0.0825195 -0.821641 1.57701e-18)
(0.0874502 -0.675891 6.76443e-19)
(-0.0753373 0.431442 4.6944e-19)
(0.126725 0.302215 1.68324e-19)
(0.682679 0.983233 6.04552e-19)
(-0.165974 0.199499 -1.33491e-19)
(0.0850021 0.348277 -8.31841e-19)
(0.0652106 0.430158 -6.2038e-19)
(-0.0809428 0.321442 -5.1902e-20)
(0.0418379 -0.00703368 -4.8623e-19)
(-0.632553 0.175447 3.34095e-19)
(-0.21372 0.512439 5.79966e-20)
(-0.0274521 0.513811 3.26692e-19)
(1.21778 -0.0874959 4.99208e-19)
(-0.295114 0.0558017 6.80235e-19)
(0.054518 0.317269 -4.41033e-20)
(-0.719311 0.191756 1.6294e-19)
(0.207429 0.347631 1.25384e-19)
(0.91537 -0.311128 -5.25923e-19)
(0.250897 0.436572 1.84249e-19)
(-0.279433 0.577831 -8.74549e-19)
(0.486764 -0.685233 1.14142e-20)
(0.181744 -0.585919 2.53268e-19)
(0.08245 -0.664079 -7.59599e-20)
(0.796731 -0.670759 -2.98473e-19)
(1.57265 -0.0876351 7.58805e-19)
(-0.0827882 0.407931 5.62197e-19)
(0.0202431 0.583319 1.32696e-19)
(0.160831 -0.783436 4.82234e-19)
(-0.488129 0.153638 -5.06551e-19)
(-0.039625 0.203413 5.58846e-21)
(0.0562517 0.277674 3.13153e-19)
(0.087252 0.394079 1.58326e-19)
(-0.264118 0.499323 5.96659e-20)
(0.0488688 0.407977 -5.25173e-19)
(-0.0439086 0.484457 -3.23822e-19)
(-0.0910863 0.182743 1.69708e-19)
(0.172097 -0.626706 2.13965e-20)
(0.0123579 0.20157 1.06653e-19)
(0.102286 -0.525857 8.18884e-20)
(0.589371 0.281244 -3.72843e-19)
(0.0831418 -0.619976 4.02457e-19)
(0.330745 0.42145 2.27006e-19)
(-0.00521219 -0.391154 3.24813e-17)
(0.135588 0.2704 5.11051e-20)
(0.145942 -0.373393 3.38607e-19)
(0.466296 1.07584 7.43292e-19)
(0.0187704 0.273914 3.37506e-19)
(-0.156426 0.184205 -1.66678e-19)
(-0.12873 -0.681241 -9.92071e-20)
(-0.353641 0.575991 -2.2438e-18)
(-0.0834537 0.300192 -2.66136e-19)
(-0.0214467 0.586432 7.00243e-19)
(0.0982021 0.318069 -1.24105e-19)
(0.267062 0.719453 1.92406e-21)
(1.14216 -0.0980305 -1.97293e-19)
(-0.185002 0.212928 2.4887e-19)
(-0.125554 0.407058 -7.67573e-20)
(0.484281 0.297045 -1.55212e-18)
(0.214294 -0.518761 -7.4021e-20)
(0.0695559 -0.801062 4.15614e-19)
(1.47275 -0.214308 -1.00587e-18)
(-0.283538 0.438486 8.10575e-20)
(0.042283 0.303328 3.83334e-20)
(-0.0844312 0.481916 9.76711e-20)
(0.0972474 -0.479972 -2.20479e-19)
(-0.11259 0.296102 -2.58048e-19)
(-0.557503 0.0910806 -6.83524e-20)
(-0.0770168 1.05604 7.10914e-18)
(0.111157 -0.410375 1.83398e-19)
(-0.440925 0.139816 -2.89161e-19)
(0.229748 0.314429 5.16116e-19)
(0.0798215 -0.600805 2.47478e-19)
(-0.498354 0.095954 -3.75318e-19)
(0.952603 -0.232508 -1.08572e-18)
(-0.0454877 0.548711 3.97014e-19)
(-0.718208 0.0373875 1.07033e-19)
(-0.103155 0.133495 3.8676e-19)
(-0.375444 0.486896 -6.77725e-19)
(-0.0151138 0.265694 -9.05331e-20)
(0.517752 0.150592 -3.84335e-19)
(-0.78278 -0.0795298 -2.47971e-19)
(0.0452933 0.266091 3.23076e-19)
(0.507871 -0.452459 7.99469e-19)
(0.256253 0.381828 1.0946e-19)
(0.0798866 0.0974214 -4.12471e-20)
(-0.129263 0.382319 4.37093e-19)
(0.0582438 0.180475 3.77044e-19)
(0.116735 -0.812894 7.55962e-19)
(0.451937 0.138281 6.95007e-20)
(0.0329876 0.39114 -7.80663e-19)
(-0.340108 0.410321 8.29063e-21)
(-0.0991712 0.455376 5.40856e-19)
(-0.00591138 0.399434 1.08069e-19)
(0.0932138 -0.505296 -1.78567e-19)
(0.11932 0.261819 -2.58525e-20)
(-0.0878703 0.549644 2.56662e-19)
(0.133604 -0.404608 2.30496e-19)
(-0.0443639 0.249567 -1.49886e-19)
(0.08311 -0.69849 9.40091e-19)
(0.01211 0.311403 6.6208e-20)
(0.0107746 0.261202 5.4563e-19)
(0.294817 -0.446816 8.66984e-20)
(-0.00827322 -0.759682 -9.45701e-19)
(0.0839097 0.30537 -8.20403e-20)
(-0.194652 0.15335 -6.21338e-20)
(0.0609637 0.168593 2.36762e-19)
(-0.475883 0.468168 -2.26968e-19)
(0.0841578 -0.562569 -1.02534e-19)
(-0.111134 0.274523 -3.19607e-19)
(-0.136115 0.175577 2.9954e-20)
(-0.137736 0.451032 2.62771e-21)
(-0.168206 0.375543 -2.8102e-19)
(-0.102419 0.513292 5.5801e-20)
(0.0792502 -0.668202 8.79875e-19)
(0.172865 -0.392835 1.50364e-19)
(0.0352367 0.188271 -6.73273e-20)
(0.210374 0.298843 6.65903e-19)
(-0.405605 0.0986205 -1.45218e-19)
(-0.287659 0.115825 -6.93321e-19)
(0.454123 1.48234 -9.4257e-20)
(-0.231734 0.123694 5.43697e-20)
(0.07161 0.0899381 -3.05857e-19)
(-0.0212265 0.249665 -7.29375e-20)
(-0.0131204 0.201991 -1.58266e-19)
(1.01122 -0.650614 -1.45832e-18)
(0.0683735 -0.371033 -3.87625e-19)
(-0.542374 -1.51298e-05 -7.81303e-20)
(0.297651 0.352408 1.92729e-19)
(0.0708459 -0.635469 3.58372e-19)
(0.860844 0.456379 3.06158e-18)
(-0.344676 0.348948 -6.54643e-20)
(0.0564796 0.244564 -9.59284e-20)
(0.0118808 -0.0520713 2.1113e-20)
(-0.135428 0.266155 1.98311e-19)
(-0.443264 0.0452333 -1.73446e-19)
(-0.595573 -0.0598147 -5.47975e-20)
(-0.161083 0.168053 -2.06754e-19)
(-0.00349131 0.1998 -9.93113e-21)
(-0.141213 0.511265 1.96031e-19)
(0.0400044 0.179996 1.59793e-20)
(0.124739 0.233135 -4.12558e-19)
(-0.168332 0.349273 -4.76681e-19)
(-0.150673 0.425313 -1.13948e-19)
(-0.693827 -0.225021 -1.16007e-19)
(-0.0185492 0.380472 5.73717e-19)
(0.0240172 0.239239 2.00431e-19)
(-0.294312 0.0237595 -5.53081e-19)
(-0.0660059 0.194213 -5.97615e-20)
(-0.0418674 0.628825 3.6272e-18)
(-0.406824 0.0553555 -1.34371e-19)
(-0.372607 0.0975631 6.54326e-20)
(0.0139582 0.1893 -6.60562e-20)
(-0.243817 0.107167 1.77532e-19)
(-0.265777 0.102984 -6.02795e-19)
(0.065736 -0.61956 5.42048e-19)
(0.00247007 0.295872 1.53192e-19)
(-0.0565157 0.384088 8.82351e-20)
(0.0947425 0.27715 -7.66046e-20)
(-0.65344 -0.376989 -5.01498e-19)
(0.0775514 -0.543995 2.72785e-19)
(-0.174249 0.155502 -3.41676e-19)
(-0.0528794 0.196387 -3.07008e-20)
(-0.155061 0.477906 7.75221e-20)
(0.0564594 -0.30754 7.5245e-19)
(0.0493335 0.161179 2.42248e-19)
(-0.0268337 0.299825 9.67348e-20)
(-0.194095 0.131221 5.02179e-19)
(-0.195687 0.412331 -2.36506e-19)
(0.26524 0.0877618 2.44553e-19)
(-0.033076 0.193216 3.57822e-19)
(0.019013 0.183108 -1.70517e-19)
(-0.0489475 -0.769351 1.33001e-18)
(-0.294939 0.0994887 -1.63074e-19)
(0.606661 -0.482905 -7.40508e-19)
(0.0587027 -0.582814 1.76563e-19)
(0.220482 0.258744 -1.3544e-20)
(0.311841 0.450812 1.57891e-19)
(2.42027 0.0999598 1.10984e-17)
(-0.135715 0.160001 -2.34857e-19)
(-0.396572 -0.635986 -1.78145e-20)
(-0.206372 0.117584 6.28189e-19)
(0.0449316 0.232617 -7.63141e-19)
(-0.0253318 0.191609 3.67132e-19)
(-0.130997 0.246067 2.87499e-19)
(0.0513119 0.152016 1.00649e-19)
(-0.390058 0.305674 -1.79553e-20)
(-0.200271 0.470231 1.03734e-20)
(-0.202832 0.335529 2.78593e-19)
(-0.0935498 0.12589 3.25971e-19)
(-0.150855 -0.743729 1.23342e-18)
(-0.431171 -0.0193069 -9.30622e-20)
(0.124555 0.129213 3.66342e-19)
(0.212508 -0.640035 1.47215e-19)
(-0.467104 -0.0546684 -6.53548e-20)
(0.109902 0.227133 -6.59444e-19)
(-0.313634 -0.686324 8.90644e-19)
(0.27938 0.308375 -4.20816e-19)
(-0.00835597 0.185465 -6.79989e-22)
(-0.540556 -0.160469 -5.91768e-20)
(0.0952621 -0.80206 6.93709e-19)
(0.0810285 -0.464058 -5.0791e-19)
(0.0298588 0.168311 3.51754e-19)
(-0.0809717 0.177593 2.60642e-19)
(-0.148447 0.153012 -1.55565e-19)
(0.00997755 -0.888262 -1.46331e-19)
(-0.0978229 0.172234 -1.30288e-19)
(0.0570275 0.135365 1.72761e-19)
(-0.201142 0.384497 -5.02182e-19)
(-0.0716047 0.181164 2.09589e-20)
(-0.562227 -0.255266 -6.87458e-20)
(0.606704 0.00932674 -2.00543e-18)
(-0.216368 0.431602 -1.85084e-19)
(-6.26657e-05 0.181976 -2.47141e-20)
(0.0815253 0.266379 -2.20544e-19)
(-0.0523554 0.18268 -1.05189e-19)
(-0.0656434 0.363207 -3.44309e-19)
(0.0983079 -0.439978 2.68192e-19)
(-0.222197 0.0909761 1.71995e-19)
(0.674199 -0.109529 -1.42811e-18)
(-0.149581 0.234121 -2.57185e-19)
(0.0563734 -0.565643 -2.4817e-19)
(-0.0333092 0.28317 2.1318e-19)
(-0.166345 0.136778 -1.43508e-19)
(-0.344805 0.0714531 1.13882e-19)
(0.0339488 0.160599 3.34126e-19)
(-0.101474 0.362487 3.86094e-19)
(-0.272644 -0.693727 1.3275e-18)
(-0.0425361 0.183083 -1.75607e-19)
(-0.060854 0.282783 -3.23135e-19)
(-0.552158 -0.451364 -2.37696e-19)
(-0.370899 0.0205266 -1.53746e-19)
(0.0566039 0.126497 1.4861e-19)
(-0.255302 0.0875605 -8.58099e-19)
(0.018234 -0.642819 8.56569e-19)
(0.0122563 0.170781 -4.51542e-19)
(0.398041 0.0716693 -3.25311e-19)
(0.0665673 0.118192 -8.08174e-20)
(0.19839 0.250055 -6.52321e-20)
(-0.176305 0.125845 -1.38097e-19)
(-0.19314 0.101265 1.07001e-19)
(-0.196825 0.30815 5.70744e-19)
(-0.262913 0.404873 -8.43163e-20)
(0.433799 -0.526922 2.84694e-19)
(-0.0265805 0.178943 2.24868e-19)
(0.0411815 0.145145 3.42915e-20)
(0.0655377 -0.509084 -1.44326e-19)
(-0.489762 -0.540491 -2.18903e-19)
(0.110946 0.202661 -1.2123e-19)
(0.0492055 -0.63184 5.77564e-19)
(0.0901993 -0.432631 4.49288e-19)
(-0.372724 0.250865 2.05559e-19)
(-0.226091 0.0801405 2.55916e-19)
(-0.275621 0.0813031 -2.81859e-19)
(-0.143584 0.21284 9.67014e-20)
(-0.244165 0.365881 -3.53254e-19)
(-0.124199 0.148441 -9.24975e-20)
(-0.198719 0.088663 7.30923e-20)
(0.0171843 0.16449 -4.9088e-19)
(-0.0187868 0.176671 8.2961e-20)
(-0.0665688 0.169891 1.77645e-20)
(-0.267894 0.00409655 -6.74582e-19)
(-0.0922428 0.162608 -4.59776e-19)
(0.0713618 -0.809978 7.01956e-19)
(0.533871 0.00540107 -1.25943e-18)
(-0.0829383 0.166406 -2.08635e-19)
(0.0429525 0.137158 8.42363e-20)
(0.155656 -0.494784 2.30208e-19)
(-0.434124 -0.133941 -3.38997e-20)
(-0.318731 -0.737645 6.7635e-19)
(-0.239935 0.0786012 -6.14794e-19)
(-0.141881 0.136997 -4.65858e-20)
(-0.058096 0.171165 3.0003e-20)
(0.134495 -0.409701 5.44664e-19)
(-0.455138 -0.196536 -3.07775e-20)
(-0.346257 0.0347928 -2.05869e-19)
(0.0895421 0.241724 -2.85243e-20)
(-0.00444382 0.169657 3.56056e-20)
(0.2899 0.262279 -2.94894e-19)
(-0.0922929 0.115162 2.84372e-20)
(-0.383116 -0.0582991 -6.38986e-20)
(-0.0417979 0.170645 -3.96233e-19)
(0.0257474 0.151422 4.34851e-19)
(-0.487697 -0.342745 -3.8026e-20)
(0.0552202 -0.604874 5.62178e-19)
(-0.296266 -0.737526 1.73152e-18)
(-0.150494 0.129601 -1.99444e-20)
(-0.106361 0.339836 1.48121e-19)
(-0.166412 0.111737 -9.73234e-20)
(-0.17428 0.100512 -2.79028e-20)
(0.00161947 0.164984 3.11501e-20)
(-0.0635631 0.265463 -4.63214e-19)
(-0.273173 0.367334 -2.20509e-19)
(-0.257727 0.0783814 -1.84991e-19)
(0.046278 0.122925 6.6179e-20)
(-0.361318 -0.0289338 -6.8252e-20)
(-0.192871 -0.932542 8.74117e-19)
(-0.482967 -0.431241 -5.41244e-20)
(-0.13868 0.33442 -3.00191e-19)
(-0.0883229 0.261639 7.31055e-21)
(0.0542528 -0.540647 5.20762e-19)
(0.202943 0.0199214 4.91867e-19)
(-0.0340222 0.169623 -2.6661e-19)
(-0.225047 0.28764 3.82838e-19)
(0.0587181 0.112834 5.45237e-21)
(-0.395859 0.216226 9.40123e-20)
(0.0286108 0.144449 2.37777e-19)
(0.145696 0.101825 -6.2568e-20)
(0.199028 0.214491 -1.82881e-19)
(-0.184486 0.0780962 2.93461e-20)
(-0.238123 0.339373 -3.92192e-19)
(0.0954083 0.200756 -2.57176e-20)
(0.336464 0.0883331 -4.40644e-19)
(-0.0197719 0.164912 4.23204e-20)
(0.0116443 0.154194 -5.21236e-19)
(0.135178 -0.410383 4.32447e-19)
(0.177938 -0.0297919 -1.97192e-19)
(0.0469318 -0.590902 1.1089e-18)
(-0.43407 -0.630824 -1.12288e-19)
(-0.0772562 0.156315 6.6329e-23)
(0.0640494 -0.477138 -3.50091e-19)
(0.110499 -0.412077 6.39743e-20)
(-0.203929 0.0699282 1.99566e-19)
(-0.396213 -0.543156 3.94588e-18)
(-0.069444 0.158622 -4.68761e-20)
(-0.121619 0.135297 1.39477e-20)
(-0.275202 0.0612952 2.98964e-19)
(0.0338665 0.131382 3.47536e-19)
(-0.054506 0.159814 1.53927e-19)
(0.128074 0.107735 -1.04157e-19)
(0.180637 0.0411329 6.16085e-19)
(0.120244 -0.0607976 -6.89723e-19)
(0.131297 -0.422247 3.07391e-19)
(0.0774166 -0.446036 4.83216e-19)
(-0.0132513 0.162105 3.92484e-20)
(0.0465579 0.115578 3.63e-20)
(0.245729 0.386247 2.04509e-19)
(-0.129353 0.129358 1.07361e-20)
(0.0774953 0.233919 2.62933e-19)
(0.138377 0.144624 4.98824e-20)
(-0.0813607 -0.664521 1.29015e-18)
(0.150057 -0.654022 7.67388e-19)
(0.0569838 -0.49728 -4.92915e-19)
(0.0152451 0.148355 -4.07681e-19)
(-0.380667 -0.704137 4.0967e-20)
(-0.0934887 0.150694 -8.27848e-20)
(-0.046937 0.160221 8.17747e-20)
(-0.143447 0.116664 -2.96448e-19)
(0.0359488 -0.561508 -2.33285e-19)
(-0.164018 0.0899401 -5.6334e-21)
(0.155014 0.0693968 -4.21655e-19)
(0.253357 0.240292 -4.03695e-19)
(-0.405803 -0.281285 -1.47936e-20)
(0.101513 0.118672 3.79502e-20)
(-0.00178758 0.153931 6.70762e-20)
(-0.22602 0.0676722 -6.46151e-19)
(-0.31332 0.333576 -2.04899e-19)
(-0.150939 0.108168 -4.08164e-19)
(0.0663324 -0.0501612 4.16627e-20)
(0.168914 -0.00635504 2.18858e-20)
(-0.375217 -0.168818 -1.62687e-20)
(0.0695512 0.0760976 -6.81753e-21)
(-0.327096 -0.772061 1.03197e-18)
(0.154342 -0.40571 -5.83369e-20)
(-0.0330025 0.157824 -4.62896e-20)
(0.0350345 0.124565 3.11614e-19)
(-0.240446 -0.258471 3.79423e-17)
(0.0889578 -0.0439244 -3.02496e-19)
(0.130871 -0.0382846 -2.81442e-19)
(-0.411151 -0.36047 -1.28576e-20)
(-0.169079 0.0797172 2.2973e-21)
(0.103618 -0.729964 8.13553e-19)
(-0.186238 0.0687389 5.82684e-20)
(0.0557274 0.104125 4.6683e-20)
(0.0280182 -0.0337322 3.64412e-20)
(-0.360502 -0.120414 -2.12434e-20)
(-0.214224 0.261471 -9.30529e-20)
(0.0918761 -0.398414 8.17434e-19)
(0.0216728 0.136919 -4.31918e-20)
(-0.374017 0.180707 -3.07889e-19)
(-0.0878817 0.243518 -3.33311e-20)
(-0.000778548 -0.613318 3.64571e-19)
(0.139985 0.161516 5.06232e-20)
(0.0611589 0.070753 1.7356e-20)
(-0.0265045 0.156328 -1.3993e-21)
(-0.316255 0.00982927 -6.57647e-19)
(0.138935 0.0812411 -2.56683e-19)
(0.0786225 -0.793636 5.02536e-19)
(0.00263934 0.149374 2.57862e-20)
(-0.204734 0.0630404 2.69316e-19)
(-0.138834 0.310304 -2.11095e-19)
(0.177008 0.209563 -8.47857e-20)
(0.0599119 -0.0319978 4.89828e-20)
(0.118945 -0.405224 -5.52899e-19)
(-0.415694 -0.53053 -1.46405e-20)
(-0.221298 -0.866839 1.27774e-18)
(-0.00838265 -0.23826 -3.12404e-19)
(-0.0145228 0.1508 3.37188e-20)
(-0.273518 0.308951 -4.45824e-19)
(0.0467943 -0.529681 1.41196e-18)
(0.153853 0.037508 -3.56315e-19)
(-0.214179 0.0612058 -3.50707e-19)
(-0.109385 0.237169 1.98961e-19)
(0.115219 0.0962112 -1.30217e-19)
(-0.241793 0.0648407 2.62592e-20)
(-0.0644348 0.147879 -3.17749e-19)
(0.0901408 -0.703615 5.78462e-19)
(0.0621837 0.095548 -2.40791e-19)
(0.0237494 0.130964 -2.7806e-19)
(0.0435917 -0.0247078 3.15385e-20)
(-0.0574302 0.149201 -2.28496e-19)
(0.116048 -0.448225 5.67009e-19)
(-0.0784321 0.144792 1.16493e-20)
(-0.402248 -0.615559 -8.84227e-21)
(-0.111783 0.128069 3.47823e-19)
(-0.124591 0.118155 1.63934e-21)
(0.0103715 0.13967 -3.08837e-19)
(-0.0441336 0.148917 5.7654e-20)
(-0.083906 0.108116 3.03009e-19)
(-0.324646 -0.0577048 -4.988e-21)
(-0.00940437 0.147608 5.29782e-20)
(-0.259557 -0.0300054 4.00784e-20)
(-0.086073 0.141529 -7.3027e-20)
(0.0810478 0.214357 1.2183e-19)
(0.0371222 0.112474 5.24558e-20)
(-0.131465 0.111735 1.02653e-19)
(0.0831812 0.272149 -1.37334e-18)
(-0.166561 0.299339 1.336e-19)
(0.142092 0.0506231 -5.30458e-19)
(-0.144239 0.0975986 -4.58513e-21)
(0.0456633 0.102409 7.93986e-20)
(0.0352564 -0.605395 -1.2292e-18)
(-0.0377151 0.148481 1.81837e-20)
(0.10218 0.10249 -5.87901e-20)
(0.110415 0.133062 4.73307e-19)
(0.138471 0.00374661 -7.66961e-20)
(0.0373973 -0.550182 -1.21797e-18)
(-0.347658 -0.749941 1.06438e-19)
(-0.150383 0.0890802 1.80609e-20)
(0.077433 -0.411985 5.61269e-19)
(-0.0258982 0.145246 3.91917e-21)
(-0.227358 0.0620793 -4.80626e-20)
(0.0275208 0.120026 2.50894e-19)
(0.0130738 0.134598 -6.93823e-20)
(-0.000486593 0.13993 8.99282e-20)
(-0.468939 -0.684764 3.20665e-18)
(0.427159 -0.0511537 -1.02272e-18)
(-0.00352056 -0.848781 6.9053e-19)
(-0.307172 -0.0324883 -2.41484e-20)
(-0.326484 -0.788555 1.2327e-19)
(-0.307 0.296922 7.96477e-19)
(-0.255717 0.0427768 4.54668e-19)
(0.107581 -0.0164681 7.46725e-20)
(0.121205 0.0721357 -1.0433e-19)
(-0.342291 -0.306087 -8.58487e-21)
(-0.338447 -0.239359 -9.88434e-21)
(-0.186179 0.0567071 1.37624e-19)
(-0.173718 0.0622362 3.38412e-20)
(-0.0204755 0.143343 1.65605e-20)
(-0.262184 0.28245 -2.38597e-19)
(-0.159419 0.0724735 4.06856e-21)
(0.179349 -0.318382 -7.60902e-21)
(-0.349543 -0.450225 3.8852e-21)
(0.13306 0.0187769 -1.8624e-19)
(0.152384 -0.426343 3.49777e-19)
(-0.229832 0.230095 5.32281e-19)
(0.0350663 -0.425637 -7.55406e-19)
(-0.0532192 0.138714 1.37209e-20)
(0.0366427 0.105782 3.40133e-20)
(-0.31647 -0.146615 4.82489e-21)
(0.110151 0.0792335 -1.0434e-19)
(0.0359409 -0.5879 4.83937e-19)
(0.00292887 0.135846 7.10921e-20)
(-0.010808 0.137843 5.6343e-20)
(-0.239147 -0.790386 8.80102e-19)
(0.0564552 0.0859833 -3.56959e-21)
(-0.0656635 0.137223 8.92837e-20)
(0.25328 0.202457 -4.40773e-20)
(0.0806348 -0.0212741 -6.23347e-20)
(-0.0723391 0.135103 4.23337e-20)
(-0.108151 0.117389 -3.30167e-19)
(-0.0470353 0.139258 2.48827e-20)
(-0.343834 -0.537532 1.94323e-21)
(0.0179676 0.124915 -4.01811e-19)
(0.0282505 0.114315 1.12844e-19)
(0.111478 -0.00453423 2.63559e-21)
(-0.114543 0.112401 -3.8796e-19)
(0.21518 -0.312578 -7.51698e-19)
(-0.0355502 0.13795 1.09901e-20)
(-0.107058 0.221663 -1.06084e-19)
(-0.126505 0.101574 9.01404e-20)
(0.0439556 0.0964148 1.0822e-19)
(-0.304076 -0.107966 1.10706e-20)
(0.27349 0.319843 3.24765e-20)
(0.021297 -0.577629 8.17501e-19)
(-0.203162 0.0525554 -2.56829e-19)
(-0.139709 -0.633127 4.81905e-18)
(0.122817 0.0459331 3.25899e-20)
(-0.241937 0.0481438 1.35932e-19)
(-0.291896 0.705828 1.59626e-18)
(0.00672465 0.436673 1.92574e-18)
(0.0636107 -0.0143341 9.7788e-21)
(0.172349 0.1802 6.01666e-20)
(-0.333503 -0.683729 7.85335e-21)
(-0.132766 0.0947883 6.99964e-20)
(0.0913818 0.0911642 6.2814e-20)
(0.13674 -0.383201 1.47332e-18)
(-0.00679092 0.134826 9.34734e-20)
(-0.173379 0.0559919 6.26279e-20)
(-0.0301114 0.137095 -9.58654e-22)
(-0.16209 0.0644042 -1.29954e-20)
(-0.0855725 0.130264 1.24974e-19)
(-0.187107 0.0512877 7.35923e-20)
(0.049531 0.0890519 1.03207e-20)
(0.0882449 -0.0137205 5.88711e-20)
(-0.143353 0.0805981 3.52756e-20)
(-0.29296 -0.71405 2.75439e-18)
(-0.00736776 -0.0162431 1.19403e-19)
(-0.132123 0.108983 -2.7209e-19)
(0.0631233 -0.475789 1.89174e-19)
(0.0089085 0.127548 1.62868e-19)
(0.113289 0.0556876 1.96808e-20)
(0.0193881 0.119921 -1.76276e-19)
(-0.332382 -0.732277 -2.32729e-20)
(-0.020231 0.133616 3.10968e-21)
(-0.0822077 0.0985522 2.16314e-20)
(-0.334299 0.258032 1.0323e-18)
(0.109866 -0.365883 2.7517e-19)
(0.123198 -0.388016 6.28024e-19)
(-0.161581 0.274786 2.30141e-19)
(0.0502714 -0.47577 -1.28117e-18)
(0.0712428 -0.0135087 7.25397e-21)
(0.577388 -0.366306 2.47896e-19)
(-0.194218 0.0479246 -1.95473e-20)
(0.0358074 -0.513782 2.39585e-19)
(-0.147724 0.0729374 3.37801e-20)
(-0.233408 -0.0435304 5.01135e-19)
(-0.32162 -0.775628 -7.36178e-19)
(-0.0158315 0.131666 2.63494e-21)
(0.0970937 0.0710361 2.49353e-19)
(-0.0436034 0.129389 1.33427e-20)
(0.000205632 0.128105 5.54252e-22)
(0.112742 0.0217768 1.18527e-19)
(-0.060434 0.127693 1.20774e-19)
(-0.216405 0.0511164 -1.04479e-19)
(-0.0545558 0.129015 5.80269e-20)
(0.143576 -0.421677 3.96492e-19)
(-0.110515 0.102484 1.53546e-20)
(0.221929 0.194144 -8.1436e-20)
(-0.287968 -0.377271 -8.65589e-21)
(0.0109095 0.123276 1.69243e-19)
(-0.0382525 0.129432 9.93767e-21)
(0.107874 0.0316316 2.19862e-19)
(-0.0992229 0.110649 -3.13417e-20)
(0.0546221 0.0752125 4.0675e-20)
(-0.0188132 -0.593327 -2.9376e-19)
(-0.287106 0.244933 -4.83222e-19)
(0.218145 0.399515 4.39111e-20)
(-0.596461 0.348607 6.29543e-20)
(0.0360033 -0.54696 3.06236e-19)
(-0.251627 0.0168438 -9.13402e-20)
(-0.0721492 0.124662 -7.70993e-20)
(-0.282987 -0.203088 7.49507e-21)
(0.13121 -0.404946 -5.50461e-19)
(0.0881393 0.0769831 3.21387e-19)
(0.0355732 0.095506 1.47284e-19)
(-0.286806 -0.256768 -4.25363e-21)
(-0.116467 0.0971491 5.5931e-20)
(-0.00808253 0.126699 1.36282e-19)
(-0.304658 -0.775709 -2.56322e-19)
(-0.278887 -0.45553 -5.52492e-21)
(-0.10261 -0.156748 -4.99888e-19)
(-0.078519 0.121803 -1.34972e-19)
(0.0291346 0.10401 -1.66369e-20)
(0.362102 -0.0149312 -3.40047e-19)
(0.152773 0.17958 1.37442e-19)
(-0.0284383 0.127704 -9.09709e-21)
(0.0594066 -0.446979 9.61835e-19)
(-0.53438 -0.648542 2.03346e-18)
(-0.274309 -0.0531938 5.57131e-20)
(0.0932691 -0.376157 1.38956e-19)
(-0.205306 0.0482802 -3.09841e-19)
(-0.127342 0.0857329 6.77468e-20)
(0.00279649 0.124625 -1.03359e-19)
(0.0115081 -0.550348 -3.71296e-19)
(-0.266315 -0.598828 5.83953e-21)
(0.141171 -0.404785 4.53406e-19)
(0.0365275 -0.0193142 1.43004e-20)
(0.0218871 0.110797 4.53223e-20)
(0.0984683 0.0507011 3.1566e-20)
(-0.177902 0.0449416 5.13566e-20)
(0.0951999 0.00528278 -7.053e-20)
(-0.023887 0.126703 -3.82545e-20)
(0.0818592 0.13683 -5.36172e-20)
(0.0444532 0.0811119 -4.6077e-20)
(-0.183502 0.25939 -3.55264e-19)
(-0.264628 -0.125944 2.3797e-20)
(0.0955765 0.0134617 -8.36752e-20)
(-0.153002 0.0593886 -2.44653e-19)
(-0.264787 -0.664689 -4.61252e-20)
(-0.00496006 0.124068 5.35401e-20)
(-0.162931 0.0518984 5.65058e-20)
(-0.132537 0.0790586 6.23162e-20)
(0.0908961 0.0577046 3.15514e-20)
(-0.228151 0.0332201 -7.32656e-20)
(-0.325627 -0.678762 4.53626e-19)
(0.0144707 0.115285 -1.70166e-20)
(-0.0501299 0.11993 2.49275e-20)
(-0.0157302 0.123439 -1.22598e-19)
(-0.044962 0.12072 1.33747e-20)
(0.0221963 -0.593246 -4.18981e-20)
(-0.169271 0.0412276 3.97255e-20)
(-0.276886 -0.751609 -1.14529e-18)
(0.386442 2.99825 2.47866e-17)
(-0.042907 -0.283844 -1.71999e-19)
(0.0577335 -0.0124382 8.42789e-21)
(-0.0605429 0.118132 -2.20954e-19)
(-0.0354095 0.120513 1.03927e-20)
(2.60032 0.189808 1.94571e-17)
(0.0339485 0.090463 1.23516e-19)
(-0.0661463 0.116134 -3.11181e-19)
(-0.0122114 0.12168 -1.36584e-19)
(-0.186758 0.040601 1.37231e-19)
(0.0283311 0.0987269 -5.92151e-20)
(-0.319749 0.227679 -1.81928e-19)
(-0.14042 0.066215 7.09299e-20)
(0.0929323 0.0317958 -2.81549e-20)
(-0.202914 -0.619865 5.69487e-19)
(-0.21806 0.0374712 8.40947e-20)
(-0.0960193 0.101014 1.50184e-20)
(0.0386073 0.0839497 -1.16351e-19)
(0.00733702 0.117821 2.29929e-20)
(0.079405 -0.00243492 -1.27971e-19)
(0.012103 -0.594838 5.15358e-19)
(-0.164003 0.0464344 5.72968e-20)
(-0.255369 -0.0924052 5.74556e-20)
(-0.101595 0.0968 4.87959e-20)
(0.0271614 -0.51354 1.08856e-18)
(0.047519 0.0687238 9.3015e-21)
(-0.112089 0.0879179 3.03942e-20)
(0.0820629 0.00312469 -1.45774e-19)
(-0.0308312 0.12033 1.76413e-20)
(0.0883118 0.0390311 1.35852e-20)
(0.0776246 0.0699532 -1.33926e-20)
(-0.294891 -0.764302 -1.80817e-18)
(0.0220321 0.106051 3.8079e-20)
(0.0498181 0.0556394 -1.7606e-20)
(-0.265343 0.216308 1.28568e-19)