/*--------------------------------*- C++ -*----------------------------------*\
  =========                 |
  \\      /  F ield         | OpenFOAM: The Open Source CFD Toolbox
   \\    /   O peration     | Website:  https://openfoam.org
    \\  /    A nd           | Version:  8
     \\/     M anipulation  |
\*---------------------------------------------------------------------------*/
FoamFile
{
    version     2.0;
    format      ascii;
    class       volScalarField;
    location    "0.35";
    object      alpha.water;
}
// * * * * * * * * * * * * * * * * * * * * * * * * * * * * * * * * * * * * * //

dimensions      [0 0 0 0 0 0 0];

internalField   nonuniform List<scalar> 
1924
(
3.09726e-06
4.88295e-08
8.03223e-07
7.60789e-07
3.42428e-07
0.000445652
0.00162833
0.00238489
0.00237263
7.61696e-07
0.00202421
0.000430355
0.479724
3.37179e-06
3.84934e-05
0.00055765
0.366891
2.21374e-06
0.000185352
2.06908e-06
0.996263
0.00112702
2.30429e-06
1.81111e-06
0.000140567
0.374887
0.267258
4.4342e-08
2.95931e-06
0
2.2107e-05
0.10659
0.094833
0.101859
1.19046e-06
2.26116e-07
0.435609
3.56765e-06
9.06985e-10
0.00363648
0.446874
0.717732
0.214703
5.70332e-06
2.10996e-08
0.123423
2.62796e-07
4.80253e-08
0.999999
1
6.98496e-10
0.964322
4.96256e-05
1.89459e-12
0.389835
1.0223e-07
0.0804073
9.36533e-06
8.26615e-06
0.00102344
1.83604e-07
2.13024e-05
7.9852e-06
0.1521
1.97537e-12
2.04069e-08
8.38231e-05
1.71251e-06
0.00014942
-2.55378e-09
0.927468
3.06355e-05
3.08279e-08
-9.52847e-10
8.34518e-10
0.000382649
1.6796e-08
6.66003e-10
5.72683e-09
1.51791e-09
1.72959e-08
0.101587
4.11816e-09
0.992624
0.00523782
8.59262e-08
3.84716e-08
5.1837e-06
1
0.929407
9.31984e-05
0.357657
0.386263
0.301629
0.988621
7.99271e-16
1.20032e-07
1.7574e-07
0.0307661
0.0171472
1.4073e-06
0.992304
0.0184764
0.266841
0.276825
2.79331e-09
1.45829e-06
0.0303425
5.74412e-05
0.287423
8.09362e-09
6.67432e-06
6.16925e-07
4.38479e-09
5.23593e-09
0.992304
1.27669e-06
0.00385952
7.21404e-11
4.92438e-09
0.547344
1
0.999999
0.76272
8.17849e-05
0.146914
0.000740288
5.27686e-11
0.120499
1
1.362e-09
1.52514e-06
0.000116845
4.0961e-09
0.991885
0.126751
1.53063e-06
1.80587e-06
2.34252e-06
1.23863e-06
3.49533e-08
7.50428e-05
0.248341
0.723804
8.06561e-07
1
0.00396039
0.686208
3.84865e-06
2.20596e-11
0.44038
1
0.733923
1.50405e-06
8.06359e-05
0.133774
1
1.44862e-06
3.39946e-09
0.275158
2.4829e-08
0.000152468
8.1131e-07
1
0.997842
0.145755
0.128367
1
4.67504e-09
0.00167224
0.000344075
0.00238489
2.83861e-09
0.122377
4.77221e-08
0.507005
2.89328e-10
0.0211722
4.98766e-09
6.3333e-06
0.0253821
0.000858736
5.72035e-10
0.119496
1
7.38791e-08
0.831615
0.0203548
1.36192e-09
2.03641e-07
0.00192142
0.00238489
-1.73596e-08
0.00110041
0.0869092
1
0.0190021
0.775484
0.370788
0.968487
0.725272
5.6237e-08
0.0419115
0.00238489
8.60019e-07
0.0229055
0.00235669
0.975134
0.987952
0.000116876
1
0.00135712
5.707e-06
0.10097
0.0201988
1.27555e-09
3.50098e-07
0.00192945
0.00237079
2.62747e-12
0.00349512
4.0974e-09
0.0958577
1.70507e-06
0.00173946
0.0192809
9.68064e-08
2.95846e-09
0.0640131
0.957341
0.378252
0.00988435
0.387195
0.000117172
0.0336238
0.955816
5.72715e-06
0.00235669
0.0246932
1
1.04161e-06
0.43813
2.63705e-06
0.979113
0.34915
0.988404
8.9539e-06
1.18937e-07
5.67372e-10
3.14118e-09
2.62802e-07
1
0.0510372
7.86184e-06
1.35465e-09
2.76119e-07
0.376292
0.692532
0.00350234
0.00117105
0.0712975
0.000398774
0.00302282
5.74462e-10
0.00155604
2.51246e-11
0.291318
4.99733e-12
0.26819
0.0426873
0.755596
0.780096
0.278209
0.552597
0.0174181
2.05369e-08
5.14937e-06
0.0444219
1.77069e-06
0.911186
0.800553
1
0.00704388
0.000291419
0.699902
1.25398e-07
2.87075e-09
1
3.42728e-05
0.679786
4.31771e-05
-3.63e-10
0.0455806
1.79756e-07
0.973817
0.999378
1.04555e-06
0.982395
1.60182e-12
1.3129e-07
1
6.69525e-06
2.83122e-09
1.03376e-08
2.55695e-05
0.404987
0.0172779
1.40354e-11
0.687408
1.9923e-08
0.987952
2.13596e-12
0.000692902
4.25903e-07
1.50077e-09
0.00362013
0.0486184
2.82447e-05
0.000170863
0.10097
2.03726e-11
0.476091
1.04667e-05
0.984062
0.190815
4.35068e-11
0.307041
0.562286
2.29903e-08
1.60396e-05
0.903301
0.00198419
1.77911e-07
5.95923e-05
3.46683e-12
0.0455806
0.0121589
0.000279348
0.000514863
2.92757e-05
4.42211e-11
0.203308
1.14925e-06
0.979113
1.30397e-05
0.00607585
0.719952
0.00263643
3.19479e-16
0.446548
0.00154875
0.182096
0.998074
1.99083e-07
0.989792
1.65202e-09
1
5.44994e-05
0.562438
-6.64693e-17
0.0455806
1.86912e-08
1.45645e-07
0.0174181
0.000330732
0.000509753
2.62973e-07
0.00553168
0.000248663
0.000291419
1.06354e-11
0.0950977
0.419516
2.42049e-07
0.376292
6.23449e-05
1.02487e-06
2.0073e-05
2.88782e-05
0.0141021
0.0122808
7.14313e-10
0.0839651
0.0815349
0.72194
1.03702e-11
3.92387e-12
0.0174181
0.376432
0.000291431
0.966588
1.70812e-08
0.0310401
0.0158468
0.00158592
0.00011752
0.376368
3.77519e-06
2.68998e-06
0.00569296
1
1.58509e-12
0.598721
0.0950224
1
0.0174023
1.40282e-08
0.0160559
0.217629
0.170943
0.0460435
4.95414e-10
0.000152197
0.00162485
0.00016226
1.88083e-09
4.11629e-11
5.11354e-09
4.90941e-10
1.51167e-08
1.55572e-09
0.000772433
3.02201e-08
0.982517
3.76333e-05
2.79414e-11
2.99219e-09
2.28791e-05
1.75125e-07
0.000135756
0.0174181
3.95228e-11
0.000273747
7.26196e-11
0.000808764
0.231119
1.32755e-11
0.129576
0.00169291
0.000546432
0.705959
0.376426
0.0370424
0.99998
0.0162036
0.773506
0.0466176
2.59313e-12
0.0284411
0.0166511
1.09089e-05
1.84682e-07
0.00899816
3.3026e-05
0.376432
0.027586
1.04293e-11
1.51079e-07
5.15442e-11
0.00156784
1.64899e-10
6.38671e-07
0.0008991
2.8253e-11
0.341878
0.0164859
0.0162036
0.000115879
0.00112176
6.33349e-09
0.0254164
1.56651e-10
2.01573e-11
1.68402e-13
0.000306146
9.01012e-11
2.2967e-07
2.08832e-05
0.0156606
1.68041e-05
0.0257922
0.000650432
0.00203454
0.0162036
2.02612e-06
1.05817e-05
0.0734873
2.02776e-08
0.000136285
2.26633e-09
0.055322
3.14824e-05
1.15079e-10
2.26773e-08
1.50307e-09
3.1212e-10
0.00481379
0.00933197
0.228013
0.999265
5.18869e-10
1.94194e-06
0.342538
0.000163711
0.78818
2.19998e-10
1.73755e-09
0.288198
5.02122e-08
1.52743e-11
5.48376e-13
6.33787e-11
0.00379443
0.02433
0.0125063
0.00609716
1.22811e-07
0.0277744
0.000709485
4.0302e-05
1.66121e-11
2.65736e-08
2.76908e-11
1.20812e-11
0.00430739
0.0267932
9.30995e-12
1.31332e-08
0.0133301
9.41334e-05
8.04426e-13
2.77431e-06
9.71489e-10
1.47974e-09
0.00696717
0.00701992
0.000133977
2.39277e-05
0.000130957
5.33537e-06
6.66042e-07
0.997989
1.24853e-10
1.1375e-12
1.62436e-13
1.80134e-06
7.74578e-05
0.794121
0.0107611
2.22088e-06
2.45282e-05
2.04472e-05
4.00482e-06
7.26322e-11
0.110369
8.86658e-11
2.33583e-11
1.62835e-11
0.99998
1.14001e-05
0.000126751
4.09343e-12
0.00088767
0.000553554
0.171116
7.00556e-09
5.02762e-12
2.56124e-08
2.07601e-06
8.87329e-09
1.68402e-13
8.8434e-06
0.190335
6.14244e-05
2.89664e-12
1.57728e-05
4.65649e-10
0.159595
3.69849e-11
1.1664e-10
7.15208e-08
0.000478185
0.000295509
0.000430112
2.07886e-11
2.61483e-13
5.10183e-11
-1.66033e-18
2.0839e-12
0.406457
3.30869e-06
2.96909e-11
0.530419
1.55483e-11
1.71769e-11
1.76005e-11
4.81918e-05
1.38635e-09
0.000688083
2.65629e-14
3.08863e-15
5.49958e-10
8.56903e-05
0.995385
2.28666e-10
3.54766e-06
0.0238866
5.48376e-13
9.17662e-08
1.14833e-23
1.75848e-06
4.57632e-08
7.268e-12
4.58625e-10
5.75239e-08
0.00281889
0.0380163
0.000521441
1.04608e-12
0.998616
3.94927e-13
7.50751e-12
0.0012583
5.017e-05
5.53039e-05
2.89198e-08
2.07431e-12
8.90826e-06
0.0212284
4.63446e-11
8.19061e-06
0.000122544
1.54258e-09
4.00258e-15
1.00071e-10
4.40921e-15
0.000671484
0.999995
1.69553e-06
1.43715e-13
2.87667e-06
8.8447e-05
7.46989e-10
0.0235573
6.41702e-10
1.44309e-09
2.35815e-07
-4.32566e-11
7.37317e-07
0.000109877
2.25387e-13
3.75948e-05
8.48689e-07
0.00620514
1.44986e-11
-7.60821e-06
1.67682e-15
5.31656e-13
7.89765e-05
6.45111e-11
1.30101e-10
2.11203e-14
5.16326e-12
4.22537e-13
3.94476e-06
0.689312
1.34798e-06
4.2877e-05
5.56558e-12
2.82639e-10
2.0041e-09
2.16249e-12
-6.43599e-05
4.33203e-08
7.95226e-09
6.2633e-14
3.42011e-05
6.58759e-07
2.09486e-16
7.01862e-12
1.40551e-11
2.76545e-11
0.000118054
1.9137e-05
9.62306e-06
9.18589e-05
2.41477e-07
1
8.18981e-13
5.03862e-13
0.102222
7.98708e-05
0.00161203
0.00304456
1.36203e-14
1.25207e-11
1.94214e-11
1.98393e-12
2.29183e-10
2.61487e-09
3.57104e-13
8.15611e-21
5.17441e-05
0.0102354
1.18886e-18
2.41912e-06
1.58149e-10
0.0080257
1.77505e-13
2.81679e-11
9.41411e-13
3.18785e-15
3.20924e-06
1
9.45848e-05
0.0184764
1.10082e-07
1.08737e-16
1.81903e-10
0.699138
3.30433e-11
2.00653e-06
1.84261e-12
3.66233e-12
-7.12756e-07
0.885737
6.23449e-05
3.09902e-21
0.000199797
1.88405e-15
2.94985e-07
1.79675e-13
0.99999
4.61515e-10
9.84863e-06
2.04944e-07
2.81182e-06
3.51869e-08
2.27121e-06
8.93223e-19
2.35683e-17
1.88836e-07
7.14364e-13
7.9803e-20
0.00170119
0.999986
7.20015e-11
5.6455e-12
8.20436e-12
3.40556e-15
6.38212e-07
1.74978e-10
2.62988e-05
0.999989
0.99986
0.0344343
7.84491e-05
1.12785e-19
1
-2.84814e-07
2.89071e-06
1.84791e-07
1.27414e-12
5.05214e-14
8.79034e-09
4.55787e-17
0.00131686
2.95984e-11
2.15655e-12
2.59216e-05
1.69505e-07
0.000411739
0.999994
6.05994e-08
0.00158583
4.94442e-14
1.87083e-11
8.87595e-05
2.6076e-12
5.81188e-11
-2.60233e-25
8.81903e-15
5.16824e-05
0.00798822
2.30349e-06
5.66442e-06
-3.61997e-09
3.12289e-07
1.32969e-12
0.999836
2.13635e-18
5.05437e-19
1.73381e-13
1.58984e-08
3.55287e-11
8.27649e-17
4.61959e-15
-3.51159e-12
3.24948e-08
2.97394e-16
0.000121639
2.58883e-05
1.74508e-07
1.22276e-05
8.81903e-15
6.11107e-10
0.999835
2.6815e-08
1.25929e-08
1.16319e-11
1.54479e-09
1.17852e-14
0.999988
1.93507e-19
5.20123e-14
1.98875e-19
1.32262e-06
1.78117e-13
1.09689e-07
9.44916e-11
4.61916e-24
0.0147601
2.77992e-12
6.61976e-13
4.45804e-08
1.61509e-15
2.01596e-11
1.29282e-06
9.06322e-09
7.33412e-21
1.18223e-08
9.26893e-15
9.32397e-13
0.000142939
3.46004e-10
0.00034116
8.89746e-15
4.73043e-08
2.11262e-17
0.99891
0.0013154
1.19122e-16
4.35948e-06
2.75363e-07
1
3.89199e-20
6.3975e-07
3.00431e-11
5.30668e-08
1.33872e-17
4.80005e-05
7.83133e-09
7.94765e-22
8.81903e-15
-1.65827e-08
2.96826e-11
2.37826e-21
2.65536e-12
1.3553e-15
2.72809e-11
3.55777e-07
-3.39948e-14
5.00874e-12
7.48056e-06
-1.77136e-27
6.94671e-12
1.485e-14
3.86428e-07
2.26035e-23
1.04738e-19
1.88229e-17
2.70684e-15
4.22345e-30
7.98708e-05
2.54107e-12
7.23301e-05
1.67279e-14
-2.29767e-27
1
5.5572e-09
0.957872
9.14071e-14
2.66809e-07
5.78403e-06
2.37182e-10
2.96454e-09
3.20463e-10
3.37133e-06
5.99094e-09
1.06412e-07
7.34148e-12
7.91368e-17
0.87644
-6.14323e-15
1.68523e-14
2.10599e-15
4.29341e-16
5.27697e-09
5.96596e-29
-5.80845e-10
3.09617e-22
6.07266e-06
3.67502e-13
3.97288e-18
2.44383e-05
4.30421e-10
6.82511e-16
6.95729e-26
6.70634e-07
-1.17205e-14
1.72503e-06
2.07877e-05
1.15603e-17
2.52198e-16
5.49066e-17
2.70602e-10
5.81206e-26
7.20173e-08
5.6985e-13
9.93137e-15
6.98894e-07
1.17279e-09
1.73943e-11
1
4.32494e-17
-6.63939e-21
1.58203e-16
0.0299536
2.01635e-05
1.00711e-07
1.52344e-12
-1.64662e-08
2.0737e-08
9.91576e-22
4.47868e-12
0.000967268
1.63559e-08
3.60436e-19
1.34551e-08
2.43597e-10
1.05762e-14
-5.53826e-14
3.02204e-17
5.3031e-11
1.38162e-21
6.8415e-11
7.57967e-12
5.08696e-13
8.13266e-25
6.92784e-11
2.44345e-27
1.74068e-09
0.999973
7.23437e-17
7.35314e-08
0.87644
-1.10289e-31
0.0505823
-2.10884e-23
5.73814e-10
1
1.74277e-17
3.46207e-15
1.8107e-06
8.23728e-29
1.06537e-11
-8.13689e-14
1.9402e-11
6.60581e-07
1.00591e-28
4.05584e-14
2.0273e-14
3.56147e-12
3.14866e-06
-3.46836e-13
0.510158
3.67749e-11
2.28073e-08
1.38586e-09
0.171966
2.5902e-10
1.11843e-08
2.42017e-30
3.93042e-14
2.17854e-09
-1.13568e-10
7.42716e-12
0.999999
0.999973
1.5557e-20
1.64826e-05
7.22725e-12
7.23914e-17
1.34036e-13
2.9425e-18
2.9133e-14
4.29422e-23
6.87076e-09
8.60095e-10
-2.00853e-27
6.12097e-10
1.44327e-27
3.31696e-25
2.1841e-09
1.57463e-16
0.000163336
2.0536e-12
1.63811e-05
6.03786e-16
1
1.2902e-12
-5.59402e-26
3.49493e-11
3.55806e-11
2.6455e-16
3.71359e-18
1.65674e-11
1.66477e-09
9.13067e-16
4.42382e-11
0
4.59828e-16
-7.73618e-15
0.99998
6.71849e-14
1.71812e-14
1.55854e-13
2.14635e-15
6.1811e-12
5.34537e-08
0.652068
1
-1.08652e-29
1.82106e-18
2.46864e-09
3.07876e-32
-3.76772e-44
6.7997e-15
1.49651e-06
0.999999
7.19348e-12
-1.79204e-34
8.07486e-14
5.75227e-06
1.3223e-10
-3.06742e-13
9.27166e-08
1.61898e-17
2.31685e-09
5.81682e-09
1.43468e-14
8.26682e-14
-2.7918e-16
-7.5286e-30
1.30388e-12
4.42189e-11
7.82964e-05
1.78272e-10
5.04949e-17
4.93068e-12
2.73682e-22
2.65693e-10
-6.46996e-33
6.33459e-20
0.999623
2.88296e-28
4.55838e-14
-6.037e-15
2.86757e-11
1.65143e-17
-9.30073e-44
4.50473e-13
-2.2332e-31
1.08103e-13
3.69623e-18
1.55756e-10
1.49347e-13
7.09213e-20
1.61572e-11
2.61394e-17
7.09239e-12
4.2427e-05
3.79726e-12
6.29387e-17
0.340801
1.83755e-37
5.22448e-25
1.08158e-14
1.48946e-11
1.30778e-13
5.24347e-12
2.27132e-16
2.14933e-10
1.22655e-05
6.72257e-05
6.71125e-13
8.63747e-13
2.44356e-15
2.53153e-10
1.2976e-13
-5.04081e-32
2.13009e-21
3.09704e-15
1.1587e-30
1.2438e-05
1.25188e-09
6.93538e-19
8.02674e-34
4.6346e-11
8.76439e-10
6.14726e-09
-2.06672e-32
2.91421e-11
7.9803e-20
9.03896e-20
0.000117322
6.84606e-35
7.32535e-14
-1.31081e-15
1.34775e-19
1.60773e-11
2.68998e-11
-9.20949e-36
3.77229e-13
-5.45917e-16
9.38257e-18
0.0263756
2.88064e-15
7.89098e-19
1.31151e-10
3.87437e-14
7.09091e-11
-7.68504e-13
-4.55878e-15
2.18762e-18
9.30596e-24
8.20839e-13
1.24084e-18
1.67169e-18
-1.15181e-30
7.35561e-18
8.38243e-14
1.53424e-18
-8.30218e-31
-4.33377e-36
3.15375e-15
6.25759e-11
3.87074e-13
7.81975e-17
2.52883e-05
0.806214
3.10786e-16
4.29883e-18
1.25867e-15
1.26564e-11
-6.98604e-17
-3.45103e-17
5.04731e-33
6.79966e-14
1
3.4484e-12
5.13199e-12
1.38162e-21
4.1852e-13
3.25264e-14
0.744267
-1.70277e-34
6.5778e-13
1.45259e-15
7.94832e-17
-1.25785e-21
2.14013e-26
1.7952e-35
-2.34228e-36
2.05114e-06
1.23532e-10
1.10833e-13
1
2.03641e-07
3.56259e-11
1.95022e-12
-1.11157e-37
1.3685e-14
1.28827e-28
5.5583e-13
3.2005e-23
3.69787e-48
1.14876e-15
4.61708e-12
7.82729e-11
5.36924e-13
2.14648e-21
2.73794e-11
0.999997
0.99881
1.56948e-13
1
2.13581e-13
1.73052e-20
-1.73425e-39
7.08364e-14
-7.96174e-17
1.90185e-14
1.33773e-25
1.20187e-15
4.84375e-20
1.28335e-13
1
2.20636e-14
5.04317e-12
1.7533e-19
6.96574e-32
-5.74128e-36
4.16396e-14
0.83101
1
5.58733e-15
6.39564e-17
-4.29867e-17
1
1
2.54121e-12
1.60988e-14
1.90806e-18
1
4.32148e-17
-1.49861e-36
3.48178e-42
-5.13632e-18
1.52177e-13
-1.30836e-17
4.79673e-16
2.96353e-13
-9.65777e-18
1.73727e-12
2.79898e-12
4.42976e-15
3.46661e-28
1.72233e-15
9.10739e-25
-7.85372e-17
3.42197e-11
5.68144e-17
0
6.49815e-38
1.04513e-16
1.2695e-18
5.42074e-14
6.25069e-23
1
2.01335e-14
3.39376e-22
1.78953e-11
1.05207e-21
-9.33472e-14
0.999874
0
1
1
6.96913e-15
4.04255e-13
3.39839e-21
4.02036e-21
1
3.04566e-17
-2.40418e-39
-1.52499e-36
2.85491e-20
4.15864e-27
-1.87321e-17
4.41979e-13
2.0118e-20
-5.37242e-35
-2.08919e-39
4.64346e-18
9.4142e-14
-1.12527e-17
4.20943e-12
6.60892e-34
-5.1722e-36
3.55723e-16
-2.97021e-16
7.00652e-14
-5.49076e-32
3.39067e-13
1.35352e-13
5.43446e-13
6.61884e-17
1.9741e-15
1.05793e-14
1.15589e-12
2.18001e-20
1.87201e-14
1
5.07132e-18
-4.50829e-39
1.1346e-15
3.99249e-18
1.48359e-15
7.63194e-19
6.56159e-05
2.80916e-14
2.46614e-16
1
-5.82679e-19
1.79396e-14
7.03241e-15
6.68871e-16
1.29026e-05
1.24805e-29
3.36386e-17
1.38834e-09
1.95928e-05
1.39106e-12
1.36332e-17
-4.10316e-19
1.17256e-08
-5.36929e-43
1.6491e-13
2.8956e-16
2.62205e-19
8.14726e-15
-1.528e-15
1.83579e-15
2.07366e-20
2.23575e-15
3.45554e-05
1.75945e-14
-1.12643e-18
-2.94347e-40
-1.74152e-18
2.08821e-19
2.89062e-38
1.62113e-16
2.21787e-14
-3.94067e-40
-6.42608e-19
-2.27289e-39
-1.14437e-17
1.28872e-10
1.3342e-10
1
7.13322e-32
5.054e-15
5.17079e-33
4.80125e-16
1.07448e-16
1
6.726e-18
4.35366e-19
6.44424e-17
5.1438e-20
8.50588e-18
2.45468e-13
2.59107e-17
-6.78078e-20
6.38252e-14
0.805559
0.798938
-1.50081e-35
1
6.8917e-18
-6.98534e-36
8.67315e-15
-7.27662e-18
1.36981e-14
-2.50805e-17
-1.4583e-19
2.50003e-17
0.96036
4.24145e-17
0.821804
0.0121578
-2.40929e-19
3.8434e-20
1
6.98196e-13
6.97159e-16
-3.53094e-44
5.84025e-15
2.0028e-29
-1.40956e-42
6.4573e-27
8.00279e-19
1.34958e-37
1
1
7.04994e-25
-3.00344e-20
1
3.90173e-18
8.7625e-17
0.999999
3.71877e-24
-1.32031e-17
8.56766e-24
-1.64452e-19
0.940667
3.0704e-23
1.8002e-20
0.246519
2.43175e-19
6.9295e-16
1
2.02555e-13
2.01548e-22
1.23493e-16
5.34963e-40
5.37136e-20
2.12459e-15
3.28063e-16
5.57132e-18
2.19245e-19
2.41696e-17
1.19853e-07
7.82916e-18
2.29942e-32
1.99939e-17
1
-1.01749e-19
-3.03399e-20
1.04344e-17
9.46056e-40
0.973862
-2.33515e-33
1
8.31337e-23
1.08983e-19
3.61482e-22
1.12062e-18
1.81424e-19
-1.19809e-19
-3.45723e-42
-2.54281e-20
2.811e-18
1.62289e-13
-9.16606e-21
5.27825e-21
-5.07299e-44
2.34151e-20
9.74064e-17
1.05066e-20
3.47243e-21
-7.9014e-22
1.83848e-18
1.18659e-36
3.1393e-19
1.97259e-18
-2.45713e-39
7.36822e-21
0
1.81356e-14
7.87777e-17
-6.59097e-22
-3.01925e-22
1.22339e-22
5.94345e-19
3.49772e-18
1.10812e-16
-2.27901e-42
-1.1934e-19
9.03314e-21
3.47038e-17
6.82812e-20
0.99999
3.67074e-18
5.61192e-16
1.23275e-17
-2.18217e-20
5.96564e-20
4.45527e-21
1
3.35539e-20
1
9.01593e-21
-2.55414e-43
1.85196e-22
1
5.53729e-18
4.0391e-21
1.1914e-13
1.95629e-17
1
-1.75026e-21
-4.85569e-22
1
-4.5247e-37
1.63871e-37
8.77384e-12
8.63771e-21
-9.79373e-22
-8.1323e-36
1
-3.16515e-23
-8.68138e-23
-3.01179e-46
1.82341e-19
2.81044e-41
-1.32183e-21
1.39672e-20
-1.15736e-21
1.41693e-21
1.2792e-18
1.53404e-40
-4.78589e-21
1.92057e-22
5.78016e-21
5.68085e-22
-4.03081e-22
8.04738e-21
1
4.98254e-31
-1.16218e-22
1
1.34198e-28
3.86592e-21
1.61806e-26
2.47182e-22
-7.41881e-22
1.42692e-24
1.56083e-20
7.45046e-23
5.38568e-24
-1.17711e-24
-1.96854e-24
-3.34809e-46
1.36962e-23
7.49376e-23
-6.48871e-21
4.62795e-08
4.6959e-24
-1.3071e-23
6.67886e-20
1.03467e-23
2.53797e-24
1
0.880539
0.824953
8.31337e-23
2.79513e-21
3.94231e-23
-7.83056e-23
1.18219e-21
7.4608e-25
1
1.95619e-18
2.54268e-23
-2.86784e-24
1.56511e-19
-4.22323e-48
-1.1483e-40
1
1.02736e-22
2.51123e-23
2.54057e-22
-9.83943e-38
-1.67386e-25
-6.01441e-29
-3.41943e-27
-2.865e-24
-4.92249e-23
8.82837e-35
2.93938e-38
6.68323e-25
1.86008e-23
1.55147e-41
9.61777e-22
9.09869e-23
1.83632e-26
2.93049e-21
1
2.34151e-20
1.37271e-20
2.97093e-25
-4.40967e-40
-1.00849e-22
2.14013e-21
3.07941e-28
6.40237e-25
-1.08458e-19
-3.45768e-26
9.05331e-24
-1.13134e-21
-8.72637e-25
4.47025e-45
-8.9706e-22
-1.57751e-25
1.13932e-20
2.34553e-51
-1.28474e-22
1.57198e-22
0
1
1
1
-1.12959e-23
-8.96625e-27
5.13848e-29
-3.98161e-28
2.07737e-21
-1.01935e-24
1
2.81252e-42
1.40809e-16
4.91305e-29
4.61457e-23
0
2.36661e-26
-4.30331e-22
-5.24718e-31
-2.29597e-24
-5.6984e-23
6.48121e-15
1.39545e-16
1.60718e-17
-1.39764e-45
7.73638e-22
7.84285e-26
-7.68424e-27
-3.34907e-21
1.03417e-20
1.03322e-25
1.90963e-24
-2.89525e-25
1
-2.86402e-21
1.48014e-22
-4.26389e-47
-5.70389e-26
2.95038e-22
9.72313e-44
6.76536e-25
-6.49239e-29
7.86762e-28
3.00936e-18
-3.31705e-29
3.91513e-23
2.5618e-25
1.25384e-21
-9.23195e-21
2.02872e-19
-8.75411e-29
2.12444e-27
7.78669e-21
-5.03883e-20
-7.63096e-32
1
-5.55754e-28
-5.25383e-26
-5.66891e-29
9.91054e-23
1.32383e-24
-1.33542e-22
3.00838e-50
-8.74401e-50
-8.71279e-27
1
4.05883e-23
1.15235e-25
-1.31099e-26
-8.61473e-25
3.83925e-32
2.76106e-26
6.05717e-24
-6.69535e-26
-1.4776e-25
-2.49105e-28
-3.80215e-24
1.75963e-33
-1.16282e-28
1
1
-2.02713e-30
-3.48904e-23
-6.75048e-28
-1.79512e-42
0.976134
1.52591e-30
2.5618e-25
-9.78559e-27
4.91884e-28
6.41236e-33
5.65552e-25
2.87027e-23
6.99057e-23
-1.61774e-31
6.04241e-35
-1.17922e-35
5.68203e-27
7.73277e-26
8.21846e-27
7.37819e-22
2.96959e-31
1.5205e-28
7.06645e-36
-5.24799e-36
-1.0644e-41
2.42186e-33
-3.84414e-28
9.46067e-30
1
1
-5.97311e-25
-5.11448e-37
9.42506e-30
9.74763e-28
1.0847e-25
-3.77581e-26
9.06883e-28
4.55545e-25
1.00558e-28
3.98527e-29
3.00037e-31
8.98301e-27
-2.77575e-33
2.5037e-30
-1.21352e-31
8.91724e-18
-9.6607e-24
9.14622e-31
6.74982e-33
8.71912e-29
5.17068e-25
6.82007e-25
-8.61395e-30
1.00352e-22
-1.72065e-27
1.24278e-33
-9.34321e-34
-2.97636e-27
3.06997e-33
-1.05331e-38
-4.32726e-36
7.39231e-28
2.06117e-30
8.24791e-29
0
-6.54727e-45
-1.01525e-28
-1.65519e-34
-1.03043e-38
-4.43713e-29
-1.22685e-33
7.4002e-34
1.25337e-29
1.16218e-28
1.88682e-30
6.25129e-27
-4.21037e-35
3.53495e-27
-5.14213e-40
-9.01341e-33
-3.66278e-30
-1.37735e-31
2.53195e-29
-4.01855e-36
-8.49413e-42
-2.26678e-40
-1.68974e-37
-9.46181e-32
-1.45439e-33
-8.2779e-33
1.03645e-29
-8.33091e-31
-9.09012e-33
-2.71827e-38
-4.43677e-37
-5.7385e-35
8.97622e-18
1.758e-37
1.98664e-38
3.42492e-40
-1.13558e-35
-1.02781e-32
1
1
1.15614e-56
1
5.93219e-44
1
1.78208e-34
-1.95324e-35
6.3397e-26
9.30436e-33
2.13383e-31
8.86439e-26
3.20571e-38
9.77542e-37
1.1812e-23
5.31335e-24
4.45168e-33
3.6977e-34
1.11205e-27
3.66531e-36
1.63307e-35
5.76017e-32
1.24685e-31
1.81126e-41
2.68023e-48
2.96824e-45
1.02093e-43
6.31188e-42
4.48156e-39
3.96058e-41
6.66632e-31
-1.04738e-34
1.2482e-09
-5.35965e-31
-3.71327e-28
-1.6559e-29
-7.45867e-44
4.51137e-48
1
0.455641
1
1.7675e-54
-3.36021e-46
4.51819e-08
8.42946e-18
-4.12464e-45
2.77447e-47
0.999173
1.10384e-08
1
1
3.61278e-53
1
6.65297e-09
1
1
6.96474e-07
1
1.33061e-10
0.969731
1
1.6589e-19
1.95966e-19
1
1
1
1
1
1
1
1
1
0.969611
0.969619
0.969619
1
0.708481
9.55869e-11
0.961934
1.52561e-13
1.51224e-13
1
1
1
0.669909
5.26016e-09
0.091195
1
0.998964
0.743601
1
1
1
1
1
1
0.999778
0.99812
1
0.422911
0.536199
1.36463e-09
1
0.969618
8.11661e-14
0.787484
0.476959
0.96952
0.0128412
0.223966
0.345404
2.39324e-10
0.969619
0.953662
0.128814
-0.000191662
0.765726
4.44417e-11
0.00131182
0.000736212
9.9451e-20
0.797534
1.40729e-07
0.844269
0.52624
0.830256
1.25679e-10
0.000205436
1.49651e-06
1
0.294148
1
2.41021e-05
5.49383e-10
0.665395
1.06354e-11
1.23089e-05
1
1.03219e-06
1.20623e-07
0.776608
8.75974e-10
0.812201
0.141219
0.091195
1
5.48186e-10
1
1
1.29651e-06
)
;

boundaryField
{
    patch0
    {
        type            zeroGradient;
    }
}


// ************************************************************************* //
