/*--------------------------------*- C++ -*----------------------------------*\
  =========                 |
  \\      /  F ield         | OpenFOAM: The Open Source CFD Toolbox
   \\    /   O peration     | Website:  https://openfoam.org
    \\  /    A nd           | Version:  8
     \\/     M anipulation  |
\*---------------------------------------------------------------------------*/
FoamFile
{
    version     2.0;
    format      ascii;
    class       surfaceScalarField;
    location    "0.35";
    object      alphaPhi0.water;
}
// * * * * * * * * * * * * * * * * * * * * * * * * * * * * * * * * * * * * * //

dimensions      [0 3 -1 0 0 0 0];

internalField   nonuniform List<scalar> 
2805
(
2.25022e-09
-1.03013e-06
1.02046e-06
2.34577e-09
-1.46472e-10
-7.16777e-09
-3.63262e-10
5.13078e-09
-1.19979e-08
-3.02778e-10
2.94682e-10
1.84929e-09
-1.48141e-06
4.36698e-07
-2.71535e-06
-1.09023e-07
-5.81987e-06
3.2628e-06
-4.08157e-06
-1.56281e-06
-3.9324e-10
8.24586e-10
-4.22559e-06
1.87192e-06
-3.18577e-08
-2.05647e-06
0.000871553
-0.000808648
-0.000134024
-1.92727e-08
6.10083e-09
0
8.47059e-09
-6.50243e-08
2.82466e-08
-7.5086e-07
5.99225e-05
0.000726427
-1.45535e-09
-2.26805e-09
-3.17965e-05
3.07207e-05
-6.00205e-09
5.91992e-09
0.00145558
0.000903064
-0.002361
1.58996e-05
-3.87209e-06
-1.34766e-05
1.74631e-07
2.93924e-09
-1.80436e-07
-2.93208e-09
-1.3895e-09
1.55563e-05
1.60481e-07
-0.000372362
-0.000145414
0.000517667
5.18919e-05
-0.000233197
6.4909e-11
-1.54861e-11
6.00399e-12
1.27198e-11
2.17613e-07
-2.17517e-07
-3.70609e-12
1.03012e-12
2.67596e-12
-1.09432e-06
1.25753e-06
-0.00013029
2.4519e-06
-1.25792e-05
3.96888e-05
-6.2709e-05
2.30916e-05
-1.19488e-05
-1.45544e-10
6.50454e-10
2.51618e-09
3.05735e-11
0.000299727
-0.000597441
-4.30556e-10
1.59267e-09
6.71247e-11
-7.15784e-11
2.18283e-05
0.000405626
-0.000275321
0.00174026
-0.000388238
3.9628e-05
-6.83468e-10
-1.91882e-07
0
2.91706e-11
-1.82454e-11
0
0.000138417
-0.000104655
1.93348e-06
-2.02262e-09
-1.93119e-06
2.77577e-11
5.39332e-12
-1.30645e-11
0.00109908
-0.0021509
0.00105182
-0.0018976
0.00116604
0.00073156
3.22191e-13
-4.46179e-13
-2.48428e-13
0.000819497
-4.00703e-06
0
-1.76606e-14
2.91564e-13
6.39083e-05
-0.000226388
0.00012429
-1.51454e-10
-1.20209e-05
7.31702e-09
-8.34563e-11
1.33774e-08
-1.12703e-05
5.16103e-07
7.21121e-06
-1.20265e-09
1.75491e-11
1.92936e-07
-7.67672e-08
7.98799e-10
-1.66632e-08
-3.60984e-09
0.000214151
0.000131005
4.11722e-17
-1.93085e-14
-6.23887e-12
4.3468e-11
-3.00099e-07
-1.33234e-08
3.3399e-07
6.40475e-10
-1.8876e-09
3.83864e-06
-7.63544e-10
8.52744e-10
-0.000313157
0.00029288
2.93697e-05
-4.04481e-08
8.34226e-06
-3.54841e-09
-9.93617e-13
-1.04382e-13
-5.38045e-13
-9.68327e-15
-1.74295e-06
-1.47065e-08
1.8207e-06
3.59659e-11
-9.36462e-12
-1.00422e-13
2.45342e-13
-8.99129e-12
-1.65078e-12
-9.56925e-12
1.38556e-11
-5.46863e-11
8.85827e-13
0.000288091
-3.51053e-05
-2.61064e-12
1.26255e-12
9.49844e-13
0.00128912
-0.000389149
-2.37879e-05
5.86844e-12
4.72602e-10
-5.35668e-11
1.33815e-08
-3.15463e-09
-0.000798521
0.000180491
-0.000477594
2.72123e-08
-3.77174e-07
3.27848e-05
0.000363448
0.000167043
0.000301236
-0.000195132
-3.502e-05
-0.000615092
0.000794334
-6.95037e-18
3.79404e-17
-5.59891e-11
1.18448e-10
3.97469e-10
0
-4.8658e-05
2.79547e-05
-1.29455e-05
-9.072e-07
-1.6489e-09
3.22808e-09
-1.68361e-09
0.000670567
-2.70411e-05
-3.13855e-05
8.37473e-05
-3.89773e-05
6.59578e-05
6.17483e-05
-4.21729e-12
2.37258e-12
1.20873e-12
-3.37217e-10
-1.27901e-08
1.27259e-08
1.05131e-05
8.6815e-07
5.04672e-07
7.10895e-08
-5.09345e-06
-1.04619e-11
1.63617e-11
3.83058e-06
8.24487e-09
-5.95228e-10
6.95182e-12
-3.07665e-11
2.31866e-11
-2.27188e-12
-4.77127e-12
0.000491974
-0.000884259
4.07928e-09
1.97151e-06
-3.63155e-06
4.7762e-15
6.24078e-15
-1.06585e-14
-1.00393e-11
0.000312412
-0.000458026
-0.00276397
0.00263692
0.000127049
-0.00119496
-1.6757e-06
-3.71253e-07
3.8708e-07
-4.95322e-06
0.000154131
-0.000124792
7.43776e-07
-6.4018e-07
2.05024e-14
-9.62412e-15
4.74442e-05
-0.000825513
0.00223253
-0.00140702
-9.43781e-12
-1.02979e-12
2.28413e-09
-1.25677e-07
7.40703e-08
3.41222e-08
3.92237e-12
0.00148647
0.000154321
-5.60043e-05
4.15986e-09
-1.43028e-09
2.3859e-09
-5.37438e-09
3.03486e-10
3.36878e-11
-3.11015e-07
0.000198075
-0.000166459
-0.000413375
0.000372552
-4.06371e-08
4.17819e-08
-0.00138051
0.000554993
3.13477e-07
0.00020853
2.71051e-09
4.98643e-07
2.75523e-15
-6.21309e-15
9.35375e-05
9.20034e-05
-0.00276397
0.000387604
-0.000369544
-5.24489e-09
6.96548e-09
4.28205e-08
5.4148e-05
1.71232e-05
0.0023626
0.000274325
-1.63425e-09
-2.09189e-10
2.25862e-10
-1.78934e-12
0.000142273
2.66158e-05
-5.73599e-13
-5.04778e-11
1.68815e-06
4.07349e-08
-0.00281469
5.07225e-05
-0.000370495
0.00029105
8.09809e-05
6.22129e-05
0.000151307
-0.000135372
0.000785622
0.00157698
-9.12756e-13
-7.97947e-12
-3.52992e-06
2.16555e-07
3.94812e-05
-4.32281e-06
4.20661e-06
-3.11742e-12
-5.07948e-13
1.99671e-05
-9.05973e-11
0.00056699
-3.17842e-07
-0.000579551
2.1857e-12
8.96052e-07
-7.46486e-10
1.80875e-11
0
-1.57734e-07
1.9327e-07
5.13897e-05
-3.68191e-05
-2.74992e-05
-1.14224e-07
9.43198e-08
-6.93408e-13
3.936e-13
2.57933e-13
7.81969e-05
7.49371e-05
-0.000742449
-0.00140846
7.80204e-11
-2.02346e-09
0.000160236
0.000113503
-1.65577e-05
5.23144e-05
-4.94444e-05
-2.01543e-12
-9.49279e-11
1.03687e-10
1.62769e-06
-2.07019e-06
-9.70267e-07
-4.72496e-10
-4.92167e-12
1.31192e-06
0.000182396
-4.13208e-05
-0.00281469
-2.14952e-05
4.65682e-05
-3.2588e-05
0.000285046
0.000281363
0.00031175
-3.87517e-06
0.00106005
-0.000813297
-0.000531594
9.71059e-05
-2.23621e-06
3.15852e-06
-4.0379e-06
2.14852e-05
-2.71119e-06
3.04329e-06
0.000937294
-0.000789438
-0.000162284
4.70755e-08
-0.00286532
5.06288e-05
2.24684e-06
-9.51982e-10
-8.73266e-09
1.95955e-08
0.000102266
0.000115364
2.0421e-05
1.22868e-12
1.93025e-09
3.67169e-10
5.14831e-07
5.14544e-07
-6.37808e-15
-9.39e-16
1.02758e-05
-1.16739e-12
2.09461e-05
-3.10236e-09
3.90861e-09
-4.02774e-08
2.51978e-05
1.49252e-05
-1.47088e-08
1.53464e-08
1.20713e-12
-8.72831e-13
1.6231e-12
0.000132205
-1.62778e-06
0.000397858
0.000630073
-0.000255309
-2.06433e-08
6.08464e-05
-2.82305e-05
-1.40541e-05
0.00028635
9.07944e-05
-6.25007e-05
0.000183511
3.03002e-09
-1.0431e-09
-2.40108e-06
3.13064e-06
4.30574e-05
-3.76681e-08
-0.00286532
3.95816e-09
-1.19547e-07
0.000554264
-0.000477123
-3.61774e-10
2.82878e-09
0.000239098
0.000676332
0.000119748
-6.74521e-05
0.000630813
3.96469e-08
-4.39554e-08
5.34013e-11
-4.90986e-13
-8.72241e-13
1.15463e-08
-0.00191255
-0.000952775
1.31508e-05
8.52258e-05
2.55827e-08
-1.2691e-12
-9.20151e-13
-2.2415e-09
-6.37947e-10
0.000232946
0.000285028
-0.000347089
0.000732213
-0.000438288
2.63748e-06
-6.55868e-09
9.17696e-05
2.1602e-06
1.08437e-05
1.7372e-07
7.02868e-13
4.35728e-07
3.85785e-07
1.14143e-14
-7.66162e-15
6.46216e-05
-0.000588874
2.73843e-15
-5.06472e-13
8.94286e-05
0.000168113
0.00074176
-0.000506903
-0.00011128
-8.90043e-05
-0.000345595
0.000578804
-0.00017791
2.55267e-05
3.79432e-05
-1.34823e-13
-3.73702e-11
-1.53854e-08
6.41066e-05
3.37053e-05
3.18316e-08
0.000894847
-0.000251185
-0.00191255
-3.63471e-05
1.3405e-05
-7.86389e-07
7.73716e-05
-0.000390291
-1.78447e-09
-2.10175e-12
-0.00223253
0.000319986
-8.98903e-08
1.27123e-07
0.000200123
2.23099e-06
-1.03e-07
-7.12475e-15
-7.06543e-11
0.000117358
-4.73901e-05
-6.05015e-10
-1.80065e-10
-0.000158363
-0.000161513
0.000453067
-1.19608e-08
9.39569e-09
0.00137122
-0.00115392
-1.24884e-15
-1.08247e-09
3.8592e-09
2.497e-11
-3.72028e-10
0
1.93806e-09
5.81983e-08
-8.44032e-08
-0.000275201
0.000431682
-4.37971e-05
0.000145152
-8.43443e-05
-3.71449e-14
2.49372e-11
0.000342085
-6.9966e-12
-0.000159897
2.09526e-18
1.70644e-16
2.44579e-06
1.06751e-05
1.08615e-12
8.36766e-09
-9.08817e-09
-6.4657e-12
1.01056e-05
3.73901e-05
-9.94004e-09
5.19727e-07
0.000185886
4.02228e-16
4.6563e-05
0.000454669
2.03505e-07
0.000243541
-0.00036631
-0.000208414
-2.45979e-05
3.08417e-14
-5.15589e-14
3.59304e-14
0.000166931
0.000329423
-1.56847e-11
-1.79573e-08
9.04229e-07
0.000391426
7.20169e-06
3.91381e-05
3.73156e-11
-1.43151e-10
-6.93399e-08
2.90252e-15
-2.39042e-15
7.26068e-05
4.99083e-05
4.53659e-05
1.21943e-06
-8.35761e-07
3.1616e-06
-1.15503e-06
9.26237e-08
-7.16403e-14
3.16516e-05
-7.21077e-09
1.65481e-07
0.000418116
0.000931345
-6.41818e-09
-1.25407e-08
1.91143e-05
1.64246e-06
2.53099e-05
6.65055e-06
1.68756e-20
-7.32997e-19
8.02322e-08
3.85754e-05
-0.000308916
0.000391509
1.42399e-10
-6.13431e-11
0.00132363
6.10712e-13
-6.8405e-13
-0.000893443
0.00188815
-0.000994708
-3.91878e-07
4.68501e-07
0.00053601
-0.000283852
-4.39337e-18
4.35162e-20
0.000122414
-4.39925e-05
-1.01209e-09
-4.41549e-11
-1.31663e-12
2.67799e-05
1.37408e-05
2.75905e-07
1.88115e-06
8.33401e-10
4.98787e-05
-6.70122e-06
1.09595e-06
2.01654e-06
2.78228e-07
1.69725e-14
-5.71772e-14
4.24533e-05
-0.000268114
-1.19568e-09
4.37045e-09
9.81403e-05
0.000265747
5.35398e-09
-1.68524e-06
-4.08501e-09
-8.27791e-08
-1.59412e-07
5.22898e-07
8.33317e-08
3.3674e-05
6.06347e-06
-3.93381e-16
0
4.44409e-05
0.000737048
-5.68847e-15
1.93072e-14
-1.19275e-15
3.70079e-05
0.000331395
3.81265e-07
0
4.87417e-11
6.6447e-05
3.28686e-05
8.62997e-06
2.73742e-06
-4.32829e-06
1.29816e-05
0.000261817
4.26122e-09
-3.20852e-08
-2.08041e-10
-8.58051e-07
-0.000704512
-0.000675994
8.9834e-16
-1.22073e-15
0.00063159
-0.000350169
5.23498e-07
0.000785622
2.39267e-05
9.91875e-06
9.95913e-12
-1.26479e-14
2.22799e-12
4.13358e-05
3.48181e-05
7.55482e-05
4.79349e-05
6.3043e-15
-5.12453e-13
1.17931e-08
-2.41994e-07
3.78433e-06
1.4646e-06
-4.56199e-07
9.27094e-13
0
1.83389e-14
-1.3056e-13
6.09633e-11
-9.40685e-11
1.27444e-13
-4.82308e-12
3.4408e-12
4.87836e-11
-3.7502e-13
1.03343e-06
4.83193e-05
-1.27428e-13
0.000140368
-1.04632e-08
2.89905e-07
7.36513e-14
-1.42521e-12
-1.84138e-12
-8.24362e-13
-9.55142e-09
-4.91e-09
0
8.21363e-10
1.07765e-05
3.01809e-08
4.0451e-05
-1.30028e-14
1.28396e-07
2.19073e-14
-1.81783e-14
-9.85401e-15
2.5828e-07
0.000187782
-5.79097e-15
9.42032e-05
-2.9712e-06
-8.64149e-05
-5.29933e-07
2.12011e-07
0.000234033
8.79017e-05
0.000243782
6.46726e-06
0.000346489
0.000106593
3.55392e-05
-3.81112e-06
0.000107589
-4.30539e-05
-6.81198e-16
2.09452e-05
3.18426e-05
2.8732e-06
2.67656e-09
3.25151e-11
5.59688e-05
-3.78362e-09
3.71708e-08
0.000350006
5.1835e-05
1.25806e-14
-2.07187e-14
-4.1537e-09
3.81578e-11
1.06707e-14
4.82337e-15
-7.09838e-07
9.19642e-07
1.36804e-13
-6.23835e-15
-1.538e-09
6.67276e-09
1.22159e-05
-2.45956e-06
1.53081e-15
5.38497e-06
0.000544236
3.90089e-05
4.18338e-05
2.78292e-07
4.54985e-07
9.82032e-07
8.28924e-07
-6.63132e-12
-2.8672e-07
2.173e-05
4.12077e-14
0
8.05077e-11
-8.04016e-11
-5.77336e-17
1.09818e-06
-3.0176e-07
-1.99188e-15
-1.70043e-08
5.62696e-08
-1.22248e-08
4.68701e-08
9.76145e-06
2.42282e-05
-9.85268e-07
1.07595e-07
-1.19527e-06
7.71648e-07
6.5155e-07
3.87998e-05
2.98041e-10
1.75775e-09
6.68077e-05
1.09424e-06
2.35615e-10
-1.50388e-09
3.05469e-08
1.53563e-08
-4.71404e-12
2.44979e-06
8.81301e-08
2.36597e-14
-1.08878e-07
2.1762e-12
-1.48998e-12
4.74977e-15
-3.11791e-16
4.50598e-07
9.51461e-06
1.55297e-06
0.000195452
-0.000216184
0.00046034
2.13441e-16
-4.11541e-09
0.000305937
-6.2579e-09
1.7426e-07
0.000585673
-2.03818e-13
8.35182e-13
-8.56362e-11
1.29697e-12
1.42058e-05
0.00021931
0
1.00698e-11
2.1153e-14
-3.41429e-14
4.0297e-16
-6.60616e-16
-6.80833e-15
1.48081e-06
4.00789e-05
2.07063e-05
5.37831e-07
2.02093e-06
3.02186e-10
2.33058e-05
-4.01396e-07
-1.68338e-07
2.82887e-15
-6.17558e-15
-8.34515e-11
2.43642e-14
-2.20392e-14
-6.14944e-16
7.32607e-05
6.72444e-05
2.93323e-12
-2.91018e-12
-1.81465e-11
1.47587e-11
1.82492e-06
6.45068e-07
-1.9156e-07
-5.9598e-16
2.65291e-17
-5.20025e-10
-7.93838e-09
0
0
1.01275e-12
1.05809e-05
-9.5079e-06
-1.91733e-06
8.04196e-06
1.07125e-07
1.03859e-06
4.13319e-08
-1.6889e-08
1.69386e-08
1.30252e-11
1.18639e-10
0.00029716
-0.000511592
-1.47586e-11
9.82312e-14
-3.26291e-16
2.09354e-16
-2.64694e-16
9.18144e-08
3.26957e-10
-7.12713e-09
4.46012e-08
-0.000180306
0.000691387
-3.90306e-06
1.24081e-05
-3.49363e-12
-1.49069e-09
1.19972e-06
6.2237e-07
0
-2.191e-08
2.06322e-14
-1.65896e-14
5.30357e-05
2.42588e-06
3.41815e-15
-1.06612e-13
3.98708e-15
-2.40903e-13
0.000175623
0.000284733
-1.50112e-08
7.9342e-08
1.57411e-16
-2.46517e-08
2.82045e-07
3.12593e-06
4.52807e-10
-8.31968e-16
-1.084e-07
1.21882e-09
0
-9.24572e-17
7.70154e-10
5.73998e-05
1.3055e-06
1.47199e-08
4.30588e-14
-4.19457e-14
2.16807e-06
-2.04801e-07
-1.01769e-12
1.35962e-13
0
3.66613e-14
-3.55525e-14
2.50921e-14
-1.536e-14
1.04202e-11
1.54686e-10
-1.14674e-06
2.97756e-07
1.41344e-07
1.81334e-07
-1.62535e-14
9.4786e-16
-1.91008e-15
-1.50731e-12
4.7335e-14
-3.05434e-24
2.91379e-20
2.53089e-15
-5.43832e-16
-4.47665e-05
-1.79604e-08
1.84368e-06
3.06955e-15
1.99518e-05
0.000341774
-3.28191e-19
-4.29222e-17
3.91796e-16
1.18286e-07
-2.1512e-12
1.07814e-12
2.35797e-07
2.30116e-18
1.85372e-19
-9.33823e-18
-1.75436e-20
-1.21639e-12
2.68023e-07
3.88092e-07
-0.000694639
0.000534554
5.1045e-14
-3.24458e-14
2.05828e-08
2.23065e-05
5.14263e-16
-2.36974e-15
-1.5972e-08
1.62976e-08
-3.05511e-24
5.13221e-27
4.87547e-10
8.63259e-11
-3.55796e-15
-4.79654e-12
-2.66782e-13
6.19436e-13
1.11244e-06
2.07662e-07
5.96114e-05
7.79396e-08
1.01921e-05
2.07249e-17
-1.63543e-21
0.00050011
0.000193006
2.581e-16
-3.79378e-16
-4.71375e-16
-1.92659e-06
4.03772e-11
2.37899e-08
-1.70927e-07
3.03689e-07
-1.35735e-10
-1.11679e-13
1.53687e-15
-6.25404e-08
6.753e-05
-1.75844e-14
1.05345e-14
-2.1289e-07
2.46261e-08
1.55611e-06
0
-5.06502e-13
-2.53301e-21
1.53716e-14
1.97421e-19
3.6803e-06
0.000522116
-2.90098e-10
6.44538e-10
-1.21139e-18
3.51166e-09
9.38128e-08
5.24305e-09
3.2078e-14
7.79328e-16
-1.96853e-06
1.64646e-05
1.27337e-13
-2.78812e-13
-8.79781e-11
3.13899e-12
3.07443e-12
-3.38621e-13
3.42612e-11
1.66124e-11
1.2378e-17
-1.12544e-16
8.96493e-09
6.95164e-05
-6.80919e-15
2.30059e-07
-7.56802e-09
-1.15252e-18
8.05781e-20
-3.06399e-18
0
8.86652e-16
3.38838e-12
-1.95589e-15
2.05568e-17
-2.86112e-12
5.40592e-16
-5.09458e-18
1.13127e-08
-0.000159173
0
2.56062e-09
-1.28607e-08
7.67605e-16
-1.4216e-15
4.20094e-14
0
3.35696e-13
2.1012e-15
-1.9023e-15
2.52275e-06
-8.61739e-10
-3.13171e-11
-1.15395e-17
-1.20995e-08
-2.51445e-08
1.5951e-09
-4.37253e-17
5.76389e-19
-6.71095e-15
2.67585e-15
-5.6493e-14
2.18302e-15
-1.87743e-14
-2.63664e-07
8.76429e-08
2.94654e-07
-1.12713e-07
1.92131e-09
1.22786e-07
1.26671e-07
-1.02029e-08
0.000687202
-0.00023427
-0.000452931
4.32873e-16
-2.14543e-16
-8.82847e-16
6.85612e-05
-7.25135e-08
-1.32466e-06
-2.72278e-07
3.55514e-07
2.0157e-19
-1.54612e-12
3.1489e-13
-1.07063e-17
1.87017e-15
-2.73018e-17
8.28727e-15
0
1.00219e-11
4.55444e-16
-6.35238e-17
-2.53738e-21
3.05447e-24
2.05309e-10
3.17801e-08
1.03986e-05
-3.30284e-19
6.46914e-22
0
4.55994e-09
-7.54779e-13
3.05318e-06
3.92267e-18
6.08631e-15
-3.23904e-15
4.31342e-17
-4.59014e-17
7.55485e-10
0.000355248
0.000331954
-2.55679e-09
2.68524e-07
9.02248e-09
-4.10124e-10
3.87626e-21
4.16121e-22
-7.85778e-13
0.000501294
-0.000258283
-6.98516e-16
-8.30181e-08
1.40165e-08
-8.79521e-18
-3.72783e-15
1.30424e-15
-7.8376e-10
1.33451e-05
-0.000213378
-1.64166e-21
2.0294e-24
3.08213e-07
-3.87399e-07
3.07878e-18
-4.40514e-18
5.38565e-10
1.09304e-17
-0.000700299
0.00021278
0.000487529
2.16285e-14
5.10746e-09
1.37666e-10
5.66e-09
-1.06441e-11
7.96564e-08
2.25676e-09
-1.78358e-24
-6.45854e-19
1.13659e-08
-4.6722e-10
-2.62388e-17
-4.58204e-23
1.90532e-23
1.94172e-23
-2.39933e-06
-0.00039153
0.000498135
1.50905e-14
-1.76015e-15
-5.12673e-20
7.70922e-16
-3.47994e-20
0
1.24507e-10
-9.19202e-14
1.18492e-13
5.64507e-08
0.000200026
-0.000719267
0.000519252
6.34903e-05
-2.64298e-08
2.82495e-08
-1.65135e-21
5.60459e-05
-0.000760557
-2.31364e-09
9.65458e-09
-5.69955e-09
4.77827e-10
2.5116e-14
-3.68738e-13
6.35693e-17
-5.70603e-20
0
-1.09463e-17
5.45604e-20
-7.7725e-07
1.08566e-06
7.57452e-15
3.59878e-16
-2.06953e-15
7.3253e-16
0
5.70049e-09
-1.42532e-08
8.21277e-10
1.49854e-07
-0.000222126
0.000506864
4.79471e-10
-7.36878e-14
0
2.33241e-16
-1.53062e-16
1.99717e-15
3.62443e-09
-2.45721e-22
4.60717e-14
-1.26165e-27
9.85392e-18
-1.16148e-17
-1.53841e-07
3.67241e-07
-1.46523e-07
2.22108e-08
9.02505e-09
-8.69008e-09
-4.20284e-11
0
-2.00128e-11
2.01919e-14
-7.46183e-15
0.000490299
-2.84556e-20
2.74931e-23
-8.94762e-22
2.14688e-16
1.90424e-11
1.01951e-14
1.43794e-14
-7.41345e-21
2.32608e-18
-1.03417e-13
-3.74094e-17
8.13229e-14
0
1.27155e-20
-2.00658e-19
2.74879e-07
1.82742e-11
2.06758e-10
-6.34901e-08
4.9389e-08
1.20299e-17
-2.30611e-17
1.00815e-12
-0.000184556
-3.06861e-10
5.14602e-10
-1.78746e-11
1.49305e-15
1.19083e-09
-1.18965e-09
4.93096e-18
-2.86182e-18
0.000268183
6.83828e-23
-1.77502e-20
2.86151e-18
-1.3436e-17
-5.23122e-20
2.60209e-22
-5.18237e-09
3.36591e-09
-2.86519e-16
2.68134e-17
4.2963e-12
9.54775e-15
-6.82672e-14
-1.78609e-24
1.63795e-27
9.58108e-05
-1.00373e-12
2.04083e-13
-9.68934e-25
-4.30154e-10
5.93369e-09
4.1242e-20
4.84899e-15
6.51779e-09
-5.4275e-09
1.90623e-11
-9.3778e-23
-9.04696e-10
7.88152e-11
1.37268e-17
-3.07792e-19
8.98729e-17
-6.60588e-17
-8.98495e-08
5.74348e-09
0
2.72701e-13
7.42511e-08
-2.37898e-18
-5.32244e-09
0
3.80073e-20
-4.66333e-20
0.00167357
-0.00167399
-5.87534e-08
1.9485e-20
-7.99995e-25
9.13466e-10
-9.78047e-10
-2.67879e-10
6.58476e-09
0.000683533
1.99561e-24
1.68777e-25
2.13527e-10
7.37889e-15
-2.57949e-09
2.69405e-10
1.65108e-22
4.52354e-09
4.67288e-10
-1.74045e-11
-2.49873e-22
1.03715e-24
-1.81412e-18
-1.63478e-11
8.32528e-14
-2.45142e-14
-1.07632e-27
3.25477e-16
-5.68499e-17
-2.74621e-18
9.25806e-20
2.80192e-14
-2.1082e-14
1.80317e-10
-3.7024e-15
5.19064e-15
6.47057e-08
1.28428e-08
-1.59134e-27
5.34119e-30
1.9484e-11
-4.63411e-15
-8.11893e-29
6.1e-11
-2.99188e-25
5.72832e-23
-7.49481e-22
5.77317e-20
1.65885e-30
-2.14957e-30
2.4245e-32
4.09557e-16
-1.32906e-17
1.54606e-08
-2.26035e-18
4.5026e-27
0.000213378
-0.0010119
-6.67479e-14
-0.000567707
0.000543514
3.44506e-18
-2.18314e-11
-2.93628e-11
7.82235e-14
-6.26207e-13
0
1.42901e-12
5.87875e-13
-4.33241e-08
1.38166e-11
1.65617e-10
1.1488e-15
6.43488e-16
1.21097e-19
-1.63874e-19
0.000247416
0.000257741
3.58223e-15
-6.29937e-17
1.56575e-16
1.15369e-17
2.31583e-18
2.8989e-18
-8.34133e-19
-3.41263e-10
1.96402e-11
-7.32536e-31
-5.16594e-11
1.19525e-11
-9.576e-23
1.81706e-25
-1.08087e-09
1.89218e-17
-8.01498e-21
1.28196e-22
-8.03442e-09
1.08086e-08
1.18187e-14
-9.16572e-15
1.69913e-15
-1.00311e-24
3.41195e-26
-2.60438e-09
1.05378e-10
-1.21456e-16
5.26137e-10
-6.02069e-09
7.62872e-21
4.62728e-19
-4.56539e-19
-8.65282e-32
1.86942e-11
-5.18163e-13
-7.9348e-28
2.13344e-11
3.70994e-17
7.24952e-17
-4.10764e-17
-4.29595e-15
-7.30545e-13
3.38092e-15
2.47585e-15
-8.87254e-05
0.00064443
-0.000555704
4.98123e-20
-1.70321e-20
-4.66883e-27
-3.95729e-19
2.4434e-11
-2.92495e-11
1.50043e-16
-1.44089e-12
0
4.42759e-12
-9.22177e-25
3.226e-26
5.55536e-15
-5.52592e-15
5.81555e-07
-8.37271e-11
3.1649e-11
1.31831e-23
-2.19071e-22
5.09713e-12
4.88847e-13
1.77986e-17
-2.85826e-17
-6.16267e-15
6.19243e-15
1.00341e-21
1.09453e-13
2.78883e-24
-3.08341e-24
5.92356e-14
1.29562e-15
3.31287e-16
-3.04444e-25
4.97547e-28
-1.84571e-11
1.78496e-12
-1.07672e-27
8.48059e-31
0
2.88813e-21
-2.31328e-20
1.07682e-10
-1.62979e-10
-1.06252e-33
-9.50001e-30
-2.5214e-11
1.64971e-12
0.000207004
0.000299861
4.48315e-20
-2.44551e-20
1.61524e-19
-2.17332e-19
5.03685e-09
2.84322e-10
-8.19992e-29
7.45671e-31
5.54898e-13
-2.59879e-16
1.3104e-16
2.07524e-15
4.2576e-15
-6.44082e-10
1.57634e-11
-1.29241e-30
7.06948e-17
-6.03197e-17
1.07888e-18
-2.73674e-19
-4.13474e-15
2.59259e-10
-1.15312e-14
-0.000134422
4.98957e-14
-8.72089e-15
5.98488e-11
-1.12265e-11
1.74083e-10
-1.41013e-11
1.53744e-05
-7.77371e-14
1.40413e-12
-7.34663e-31
3.74046e-33
2.33936e-18
-1.10501e-19
-8.14395e-12
4.46519e-11
1.49001e-11
-4.53273e-13
1.01546e-15
0.000710239
-0.000190986
-0.000721254
0.000536741
1.26596e-25
-4.32056e-08
1.28302e-14
-1.55797e-19
7.1755e-18
7.43191e-18
4.48076e-23
-1.73859e-17
1.2544e-27
1.32786e-28
8.65113e-11
2.07527e-12
9.72048e-14
1.03677e-29
1.43797e-15
-8.05123e-28
2.75716e-30
-5.43444e-31
-2.61e-13
3.44255e-21
-9.65704e-13
2.36159e-13
-7.68532e-09
1.28864e-18
7.64866e-19
0.000428709
0.00028153
7.57432e-17
7.35277e-17
-1.54761e-32
-1.67957e-12
1.29212e-13
3.89619e-14
-1.45896e-14
3.58451e-20
1.39449e-20
-5.87569e-21
9.70579e-15
-5.13906e-13
2.44275e-20
1.47727e-16
1.03976e-14
2.71666e-18
4.64977e-20
-6.63018e-17
1.03439e-18
-3.85956e-18
0.000931108
-1.68791e-17
3.46619e-17
-3.42638e-17
2.95477e-16
-3.0882e-16
6.15153e-20
4.79237e-13
-1.16628e-14
-6.10746e-11
0.000391565
0.000130552
-3.14627e-34
2.4016e-22
2.64271e-12
-8.70445e-32
5.06782e-34
2.9984e-34
2.37509e-19
-6.08178e-09
0.000480964
5.26842e-16
-1.08285e-33
9.93915e-36
-1.45431e-15
4.27517e-09
2.62644e-13
-1.66374e-14
-4.49513e-11
2.17527e-11
2.34472e-20
-9.32219e-21
-1.77844e-11
5.40108e-13
7.10856e-13
7.57499e-18
3.44487e-18
-1.3213e-16
1.09768e-17
-9.2445e-30
6.73414e-32
3.92475e-17
1.15189e-16
9.47043e-13
8.24259e-08
5.67943e-15
-1.41523e-18
8.94006e-15
-1.55827e-25
7.67655e-27
9.99643e-13
-3.55647e-13
-4.07303e-37
1.94715e-24
-2.13493e-23
-0.00017712
-2.93424e-33
-4.04296e-18
-1.32362e-14
1.93072e-15
-4.60713e-15
1.37094e-14
9.9963e-21
-1.32079e-30
2.83842e-32
-1.07282e-13
2.81036e-14
-4.97261e-36
3.60208e-18
1.27606e-22
-2.52836e-22
3.61307e-14
1.23279e-14
-9.07756e-18
8.81791e-24
-3.99552e-35
-3.27374e-13
1.90874e-14
9.15268e-22
-3.75867e-22
3.98293e-16
7.85105e-08
-2.33043e-08
2.74562e-15
-5.51815e-16
2.19307e-21
-1.96323e-22
-0.000324468
0.000199772
1.0886e-36
-1.10852e-36
2.03411e-38
-5.19468e-28
1.55598e-29
2.66468e-17
-2.20938e-17
1.02657e-14
-8.88338e-16
-2.9068e-14
2.83178e-15
6.2749e-21
8.98087e-21
5.22906e-13
-1.0995e-12
2.1224e-08
-1.69719e-08
-8.46705e-08
9.42024e-08
-4.90697e-18
5.97248e-17
3.53997e-16
-5.38783e-17
2.17339e-16
-1.61264e-32
6.07531e-34
1.93995e-26
4.93807e-20
7.78464e-20
4.18016e-34
-5.43561e-31
-2.14669e-13
1.06253e-08
-1.51916e-12
3.14723e-14
-7.67885e-20
2.80692e-21
6.95157e-20
-3.17537e-34
1.87137e-36
4.404e-13
-3.59003e-14
1.6005e-12
-2.61978e-12
1.80534e-13
-2.55245e-36
2.78766e-12
-2.64752e-13
-5.1453e-23
2.93112e-33
1.98889e-18
-2.33275e-18
1.23689e-20
1.78185e-24
-1.38502e-14
3.84947e-14
9.47937e-15
-2.53231e-40
-1.87275e-14
1.26344e-15
-2.0666e-19
8.04896e-21
1.76586e-20
1.30293e-05
1.00027e-17
-9.46389e-18
1.36207e-23
-1.8324e-13
-4.17208e-18
-2.38939e-15
2.76759e-13
-8.51074e-15
-1.64473e-15
2.15673e-16
3.84383e-23
4.85076e-29
7.3691e-17
4.13111e-22
3.66188e-21
-5.62631e-23
-4.93059e-34
-5.69286e-41
1.39848e-22
-1.47264e-16
-5.55554e-35
-4.17651e-37
3.65835e-39
7.37749e-21
1.35307e-19
1.11804e-13
-2.86925e-16
-1.15454e-17
3.62513e-17
1.40393e-21
-1.07713e-07
1.31475e-07
0.000298149
-6.10458e-05
-0.000274126
1.72035e-19
2.02094e-21
-5.67528e-17
-1.15244e-12
1.21302e-14
-5.54693e-19
-1.065e-19
-2.08715e-20
2.84321e-36
8.89045e-15
-2.04388e-16
0.000256687
0.000224277
2.55848e-15
-4.10618e-16
-5.65089e-15
4.9038e-16
-8.59628e-16
7.38175e-19
-0.000243293
-3.74639e-05
0.000129176
-4.13649e-36
6.21982e-38
1.87307e-16
7.71537e-18
-6.02516e-18
1.25806e-21
-1.23124e-20
6.19563e-31
5.6052e-32
-1.80515e-37
1.11089e-38
1.1548e-13
7.09323e-17
-1.23381e-17
-0.000659852
0.000468866
-1.85823e-13
3.86388e-14
3.76746e-15
-2.13346e-40
-1.0503e-15
1.14149e-16
-2.98825e-34
5.04563e-16
-9.74671e-17
7.51696e-28
-1.14221e-26
2.42279e-35
7.3048e-37
-1.90961e-20
8.28416e-20
-4.09458e-14
1.86354e-15
-3.912e-14
1.38155e-14
6.40543e-16
-3.88936e-16
5.31244e-26
-1.46869e-25
-2.06013e-15
-0.000123107
0.00072115
-0.000853582
-3.08367e-15
2.00182e-16
0.000670071
-0.000614026
4.77888e-17
3.88863e-25
-2.38631e-25
-2.62668e-40
5.55174e-42
1.21589e-16
-6.09925e-17
6.81112e-18
6.85391e-18
-7.26178e-29
3.16225e-30
2.13303e-16
-2.24859e-19
9.32793e-25
-1.5382e-25
-1.3724e-17
2.80115e-17
0.000336341
-0.000425067
-2.4356e-18
8.79825e-15
-1.25117e-14
2.0656e-24
2.99316e-24
1.07427e-18
3.11628e-23
-2.84311e-36
6.42894e-38
-6.76719e-18
0.000676356
0.000598569
-1.84546e-16
1.25939e-17
1.58645e-21
-6.97053e-20
5.10022e-22
0.000213378
6.65123e-15
-6.58567e-16
3.6923e-19
5.71121e-24
3.45312e-23
0.000556548
-7.13615e-19
-5.68266e-41
-1.20966e-43
2.37353e-16
-2.11537e-16
-3.55719e-21
-2.72854e-20
4.18074e-20
1.5926e-16
3.26184e-20
-4.4482e-21
-1.79732e-17
-2.19555e-14
2.02583e-16
-1.25737e-18
-2.58793e-31
8.76735e-33
2.70685e-18
3.49317e-30
1.33255e-20
7.11108e-14
-3.89915e-14
2.40576e-19
-2.14663e-19
4.73847e-41
1.57136e-39
9.33558e-42
-6.82178e-17
1.10227e-17
-4.36791e-24
5.72303e-23
3.63652e-17
-9.99783e-18
3.51206e-28
0.000498135
1.95446e-17
2.49868e-27
4.21035e-15
6.74572e-27
4.16833e-15
-1.22033e-16
0.000544238
1.95435e-22
2.17677e-22
0.000627727
-0.000199018
0.00140702
-0.000736949
1.86248e-18
4.09065e-14
-4.04551e-15
1.88663e-26
0.000393457
8.95862e-22
1.02953e-42
-2.68997e-43
-2.80033e-43
9.81231e-40
-1.85329e-37
1.03422e-25
8.96691e-33
-2.32167e-23
-2.33456e-15
8.09807e-17
1.38722e-22
1.59037e-39
-5.41048e-39
-2.1753e-40
1.68358e-42
7.97211e-19
-7.87105e-19
-9.12528e-18
1.92874e-17
-1.96724e-19
-2.11345e-17
2.54971e-37
-2.98737e-34
-8.74315e-44
4.17282e-19
-3.773e-17
1.25775e-16
-2.62769e-18
5.0362e-17
-1.02873e-16
-1.71761e-35
-4.02962e-41
5.97754e-16
1.72986e-16
-1.73589e-16
7.73994e-16
-4.83885e-17
-9.08371e-18
2.08367e-18
1.23602e-18
-3.11273e-19
8.42921e-20
8.07682e-16
-5.40123e-16
2.97072e-25
4.04219e-17
0.000819924
-0.000483582
2.79866e-21
1.00796e-46
-1.97785e-17
1.66527e-18
-5.1678e-20
-1.03812e-16
1.10062e-18
-1.77208e-23
7.80036e-23
1.38848e-17
-2.06627e-20
2.13359e-20
0.000205898
-6.38849e-19
7.41395e-20
5.50244e-16
-4.60149e-17
1.18558e-18
1.17161e-18
3.56686e-34
1.38546e-35
-1.46426e-18
8.6543e-20
1.93332e-12
7.37886e-14
2.97441e-22
1.77464e-21
-1.36414e-22
-3.59152e-12
-1.24904e-43
2.73348e-45
1.70396e-16
2.00389e-17
8.84459e-20
2.90117e-21
-8.76411e-23
-4.86614e-20
4.66994e-17
-1.30565e-18
2.79298e-18
6.1642e-25
1.07452e-17
-9.63606e-19
9.59053e-19
7.34811e-25
-2.08349e-43
2.7167e-18
-3.67779e-21
-5.49274e-21
-2.60377e-40
1.57769e-19
-7.51901e-18
6.43442e-41
-9.6221e-22
1.12327e-23
1.34103e-43
-7.8111e-19
1.07143e-19
-1.45515e-13
-0.000116128
-1.99737e-37
-2.87173e-18
3.60715e-18
4.07914e-19
-1.24465e-19
1.95214e-19
0.000628687
2.31827e-20
-3.73699e-23
4.84267e-23
-7.46361e-21
-1.36436e-20
1.54197e-21
2.91626e-18
-2.58162e-19
-6.30294e-20
1.22219e-20
-5.29357e-17
1.29424e-16
0.000267358
-4.09615e-39
-5.23858e-45
0.000272926
-0.000697993
1.5953e-20
-3.35142e-40
-4.39371e-18
2.52857e-19
-1.85726e-19
1.51564e-20
5.09568e-17
-3.87624e-19
1.32737e-18
-2.35801e-20
-1.77139e-21
1.17029e-20
1.00908e-18
-5.83692e-20
-0.000433555
-5.39547e-21
-3.53608e-22
0.000673345
-0.000400419
4.19189e-19
-6.34404e-47
4.32969e-21
2.88879e-34
-9.36336e-33
6.7489e-46
-1.74366e-46
8.12657e-32
-2.03907e-30
3.86651e-21
-3.32587e-21
3.32496e-41
1.86833e-41
-0.000342745
-0.000588822
0.000389804
1.86262e-29
-1.51621e-28
-1.50059e-21
-2.70327e-23
0.000736949
-0.000531051
6.29101e-21
-1.36385e-20
5.48097e-21
-0.000544254
0.000421147
9.73201e-28
-3.68724e-28
2.59515e-19
-6.50037e-21
1.80397e-27
-1.39827e-28
-2.85659e-23
-0.000249972
-7.73661e-05
0.000359476
8.65737e-28
5.1689e-27
8.25373e-25
-5.01277e-05
-0.000237849
2.15262e-22
8.76044e-19
2.35204e-20
-6.14107e-27
1.16086e-25
-7.99758e-18
7.50262e-20
-1.9362e-43
4.83162e-44
2.87989e-23
-3.73156e-19
-5.58787e-19
2.53503e-19
8.88027e-23
-8.72053e-21
4.26936e-22
1.40285e-20
-5.95301e-21
1.53048e-10
2.62938e-09
-2.90044e-09
1.29608e-19
-8.19406e-21
-2.34817e-35
3.72618e-37
1.04741e-20
-1.08863e-19
-0.000119956
2.37538e-20
-3.88031e-23
-4.36951e-23
3.50613e-26
8.02756e-21
1.3831e-44
7.73746e-05
0.000189762
-1.21294e-26
2.05245e-25
5.06231e-23
1.06441e-23
-3.64183e-23
9.25624e-22
-2.95426e-23
1.78164e-23
1.17061e-22
1.17037e-50
6.55775e-21
-1.22508e-22
6.97899e-22
-1.96812e-24
-2.03863e-21
2.51383e-22
4.29652e-47
-4.47783e-48
-4.05587e-48
1.588e-20
-3.42723e-23
1.3522e-19
-6.13556e-20
1.44063e-23
-3.99814e-22
3.34593e-23
-1.7508e-23
6.24036e-21
-9.06531e-22
-2.00069e-37
4.49474e-40
-6.47453e-20
5.43115e-21
-3.77112e-19
1.4102e-21
-2.68086e-40
1.66815e-42
3.95182e-23
-3.33889e-23
9.4113e-25
-1.54824e-17
3.97044e-21
1.46387e-24
-2.50346e-25
5.62664e-21
-2.41132e-23
-2.82012e-26
3.94495e-25
-2.82642e-23
-3.87054e-19
2.01577e-21
-7.01108e-22
-2.12485e-43
2.26061e-45
8.4624e-21
-2.19655e-22
3.25846e-25
-1.26079e-23
6.28481e-23
-1.95618e-21
3.18684e-20
-1.5194e-21
-6.65327e-21
6.78102e-22
4.44066e-23
-1.31318e-24
0.000300721
-0.000643466
1.26106e-22
0.000572496
-0.000271775
-1.45491e-22
1.87998e-52
1.66526e-25
1.74181e-20
2.03734e-22
-5.43652e-24
-4.33721e-21
6.23195e-22
0.000531051
-0.000341289
2.25099e-22
-1.27691e-23
1.19262e-22
-2.29203e-25
0.000172077
-8.59151e-41
-2.04145e-47
2.9712e-06
-2.9712e-06
9.33793e-22
-4.89118e-23
1.25089e-25
3.28583e-24
-0.000250009
1.17689e-25
-7.8472e-27
2.79573e-27
-6.50817e-47
1.25093e-48
9.68922e-23
-5.37979e-23
-1.66179e-44
1.28501e-45
5.00602e-23
-9.3203e-25
-2.02263e-21
1.45357e-23
2.55002e-25
9.36466e-25
2.03277e-24
2.26737e-46
1.24696e-25
-6.7489e-24
-5.85377e-26
4.35062e-25
4.56872e-24
-4.7251e-24
1.87875e-28
-5.38969e-25
-1.48647e-21
5.04041e-24
-0.000531348
0.000281339
-2.02985e-23
3.21656e-24
-0.000421147
0.000301192
5.49261e-23
-4.99578e-24
1.76227e-25
-2.50566e-23
3.89794e-24
3.06323e-24
1.41862e-23
-9.08541e-26
9.508e-25
-7.05487e-27
-2.4432e-27
3.43416e-29
1.94942e-49
-3.49953e-50
-1.73559e-24
6.14045e-14
2.86831e-27
-1.94828e-25
-1.30117e-23
4.95983e-24
-1.34096e-23
5.98001e-25
-6.31279e-26
0.000540405
-0.000316128
-0.000233596
-6.90244e-22
1.31413e-24
2.32665e-25
-2.00536e-25
5.0871e-24
-1.86537e-25
2.58384e-24
-3.48051e-23
-1.44459e-26
0.000341289
-0.000169212
-5.32959e-21
1.00541e-21
-4.68061e-24
5.77171e-26
-2.89607e-27
1.89611e-25
-4.49666e-22
5.99555e-23
4.45676e-51
-2.53429e-52
9.02864e-44
-9.67999e-45
-0.000141544
-1.50678e-24
1.36498e-25
2.42533e-25
-1.98715e-29
7.13465e-27
1.96162e-30
2.90305e-27
-1.67522e-29
-7.8633e-28
1.4123e-26
-4.46821e-27
1.03698e-27
1.50957e-26