/*--------------------------------*- C++ -*----------------------------------*\
  =========                 |
  \\      /  F ield         | OpenFOAM: The Open Source CFD Toolbox
   \\    /   O peration     | Website:  https://openfoam.org
    \\  /    A nd           | Version:  8
     \\/     M anipulation  |
\*---------------------------------------------------------------------------*/
FoamFile
{
    version     2.0;
    format      ascii;
    class       volScalarField;
    location    "0.35";
    object      epsilon;
}
// * * * * * * * * * * * * * * * * * * * * * * * * * * * * * * * * * * * * * //

dimensions      [0 2 -3 0 0 0 0];

internalField   nonuniform List<scalar> 
1924
(
0.0843008
0.0941068
0.102773
0.101364
0.0941846
0.0977871
0.0959054
0.091815
0.0911443
0.103897
0.0899424
0.0912629
0.0463114
0.0929722
0.0957156
0.0938459
0.047982
0.0946805
0.0789823
0.0965209
0.0315545
0.0700131
0.0696017
0.0976239
0.0716091
0.0675394
0.0690542
0.101322
0.0891187
0.0926795
0.0639518
0.0695717
0.0718137
0.0554501
0.102449
0.0753429
0.0645977
0.0965522
0.0848343
0.0571752
0.064976
0.0366629
0.065952
0.0673434
0.0941091
0.0716266
0.0869073
0.101162
0.026973
0.0262118
0.086469
0.0385164
0.0711113
0.0837544
0.0498816
0.103677
0.0799643
0.0993177
0.099842
0.084495
0.077734
0.0921056
0.0755194
0.0824597
0.0793421
0.10234
0.0933083
0.0762223
0.0833913
0.0838898
0.0291932
0.092118
0.080185
0.0946421
0.0935816
0.0436828
0.102267
0.0955653
0.100541
0.0829322
0.0988991
0.0734986
0.0890705
0.0305455
0.0761769
0.0798117
0.102287
0.0954553
0.0253425
0.0284579
0.0940833
0.0735205
0.0637053
0.0624239
0.0323758
0.0694201
0.101982
0.0982953
0.0835364
0.0355649
0.103029
0.0323715
0.08404
0.0780351
0.0636794
0.0992916
0.0967908
0.0609726
0.085416
0.0678122
0.100736
0.085496
0.0984053
0.0937504
0.10088
0.0261365
0.103081
0.0948547
0.0879678
0.101788
0.0655989
0.0896359
0.0302324
0.0254909
0.093417
0.0683873
0.04969
0.0948095
0.0804881
0.140045
0.100164
0.102019
0.363834
0.0935433
0.0368784
0.07374
0.0988753
0.0958787
0.0984776
0.10162
0.102896
0.0939055
0.593253
0.42671
0.100888
0.068213
0.0608734
0.0335347
0.0877353
0.0894535
0.082054
0.181388
0.0421708
0.101838
0.0985553
0.0685879
0.0885632
0.102674
0.0981705
0.58247
0.0946354
0.0467064
0.101554
0.0944947
0.0799907
0.0737518
0.0766163
0.113509
0.101435
0.0824237
0.076374
0.0942621
0.0985377
0.0794828
0.103394
0.0487006
0.0929171
0.0962854
0.081372
0.0999499
0.0642029
0.0969337
0.0987591
0.0763934
0.0262878
0.0947536
0.0436126
0.0706587
0.101042
0.0970726
0.0541743
0.0917683
0.0979073
0.0958675
0.0849755
0.191619
0.0758063
0.0501327
0.0560077
0.0485159
0.230257
0.0971737
0.0837776
0.0893912
0.0874368
0.0638994
0.0941899
0.0397226
0.036599
0.369069
0.100057
0.0931395
0.0991016
0.0842849
0.06997
0.0988252
0.0893061
0.0555571
0.0904238
0.0931516
0.0634896
0.0879642
0.0833131
0.0990045
0.0890896
0.0753805
0.0959156
0.099543
0.0913869
0.0501658
0.240589
0.0894745
0.0569426
0.145752
0.0807585
0.339744
0.099259
0.0904153
0.0933772
0.202603
0.0973784
0.0582566
0.099004
0.041123
0.460594
0.0345926
0.0904964
0.102651
0.0983856
0.0989125
0.0966218
0.123856
0.0905575
0.0925464
0.100688
0.0990464
0.0682124
0.0578063
0.0638787
0.0897663
0.0708485
0.0924772
0.0801922
0.0994677
0.0708642
0.0881038
0.0431963
0.0962288
0.0512127
0.248729
0.0527837
0.085758
0.0688962
0.0610394
0.0890867
0.0986675
0.0922833
0.0803468
0.100005
0.0531169
0.203528
0.300626
0.0918071
0.095186
0.0639621
0.0975527
0.0963718
0.140062
0.0917398
0.0588501
0.0982073
0.0827695
0.0848761
0.0991626
0.024086
0.0827004
0.098594
0.0421818
0.0939159
0.0991062
0.250369
0.0992286
0.0987449
0.0906372
0.0946114
0.0650549
0.0518757
0.0985337
0.0589405
0.095121
0.0371797
0.0899067
0.0944772
0.0778767
0.0996798
0.0528259
0.0708709
0.093059
0.0975997
0.0779504
0.0857695
0.054669
0.100351
0.0879206
0.0694497
0.0990577
0.0638201
0.0617521
0.101823
0.0955483
0.0543294
0.0925697
0.080968
0.0961255
0.0882721
0.0843394
0.0872471
0.0982126
0.0959505
0.100429
0.0988987
0.091015
0.0752341
0.0440115
0.0983851
0.0924008
0.284659
0.0929359
0.0896988
0.0652479
0.0685725
0.477069
0.243422
0.0985697
0.0382382
0.0971225
0.0286583
0.0936052
0.0614911
0.0575727
0.0875824
0.0987898
0.0985923
0.0891204
0.0711604
0.0972223
0.0784274
0.0597416
0.0956088
0.0983592
0.0982635
0.0774123
0.0630344
0.0971244
0.0736014
0.0720116
0.098539
0.0978168
0.0744988
0.0927988
0.092956
0.0955176
0.0638458
0.0839553
0.0550783
0.0982504
0.0856194
0.0903419
0.0707246
0.0977153
0.261962
0.082446
0.0695705
0.0921795
0.0966169
0.429035
0.0697614
0.0763808
0.0966214
0.0943718
0.0725284
0.0900722
0.0489955
0.0548505
0.277448
0.0879254
0.0982669
0.0923372
0.0634086
0.0704474
0.0868565
0.0844743
0.0950961
0.0935086
0.0960487
0.0909456
0.0984226
0.0979994
0.0839678
0.100543
0.0981837
0.061947
0.0983992
0.0412915
0.0736816
0.0978953
0.0995564
0.0760293
0.0803796
0.080345
0.0889058
0.098403
0.0832535
0.0879106
0.0970215
0.0768761
0.0980025
0.0571174
0.0942721
0.0756964
0.0566614
0.0727318
0.0830731
0.0754385
0.0930462
0.549922
0.0889043
0.0863895
0.0693002
0.0906197
0.0975364
0.0827785
0.0883291
0.0969117
0.0721383
0.0749048
0.0978625
0.0981358
0.0888674
0.094383
0.097132
0.0791308
0.0613011
0.0894994
0.0511581
0.0913623
0.0926398
0.0958545
0.0921009
0.097138
0.0734596
0.0863142
0.0786462
0.0979713
0.0683007
0.096183
0.0698451
0.0938658
0.0935399
0.0963209
0.0880037
0.0956872
0.0890459
0.0931327
0.0814171
0.0753107
0.0787975
0.0962454
0.0852154
0.0983822
0.0583795
0.0835788
0.0877114
0.0979663
0.097235
0.0978169
0.0945808
0.0900017
0.076713
0.0870206
0.0974402
0.0978537
0.0606052
0.0785026
0.0477708
0.0912391
0.0975064
0.0749605
0.0849256
0.0972595
0.091738
0.097812
0.0909841
0.0874672
0.0920966
0.0928478
0.0806159
0.0744754
0.0929227
0.0959427
0.0894013
0.0973221
0.0966886
0.0974278
0.091074
0.0793093
0.0772711
0.0847501
0.0759314
0.0957928
0.0897291
0.0952348
0.0865641
0.084762
0.0572703
0.0939422
0.0961153
0.0702018
0.0621777
0.0786563
0.0840863
0.0866252
0.0877357
0.0890102
0.0971652
0.0853051
0.0759638
0.0784334
0.0944069
0.097599
0.0834531
0.0904063
0.0969097
0.0888153
0.0791202
0.0865018
0.0853074
0.0875811
0.0846504
0.0644485
0.0804237
0.0895715
0.0550987
0.0912065
0.0625515
0.0805606
0.096082
0.0965173
0.0774935
0.0858885
0.0971927
0.0880013
0.0782938
0.092022
0.0792806
0.0935892
0.0868667
0.0501385
0.0964953
0.0876853
0.0836241
0.0960548
0.0928695
0.0927847
0.0802235
0.0878039
0.0966774
0.0892333
0.0960675
0.0904022
0.0796365
0.0892526
0.192298
0.0834448
0.0882678
0.0967117
0.094087
0.100363
0.0944863
0.0896332
0.0562621
0.0964995
0.0955342
0.0691108
0.0881608
0.0941922
0.0785679
0.0922813
0.0751826
0.0880018
0.0808743
0.0974072
0.0875397
0.098618
0.085561
0.0950016
0.0903704
0.0597342
0.068761
0.0797987
0.0964251
0.0956049
0.0937116
0.083763
0.0950462
0.0741619
0.0889177
0.0957491
0.0822015
0.0888073
0.0966941
0.085002
0.100025
0.0895025
0.0888168
0.062133
0.083117
0.0788325
0.0881902
0.09652
0.0912399
0.0920498
0.0877811
0.0814014
0.0910095
0.0966423
0.0856687
0.0953162
0.0891559
0.0682594
0.0891629
0.0925841
0.103269
0.0927378
0.0890029
0.0932591
0.089041
0.0903693
0.082114
0.089044
0.0850699
0.0894953
0.0744668
0.0954087
0.0936099
0.0658499
0.084408
0.0963749
0.0891213
0.0885311
0.0876279
0.0920616
0.0698612
0.0979406
0.0964882
0.0950361
0.0928858
0.0967055
0.0878435
0.0897055
0.0958756
0.0956911
0.095292
0.0946966
0.0859478
0.0953101
0.0940618
0.0679852
0.0956221
0.0896805
0.090942
0.0951165
0.0936008
0.0851775
0.0887766
0.095769
0.08976
0.081689
0.0884572
0.0878222
0.0915139
0.0884593
0.0875285
0.0562383
0.0811875
0.0888796
0.0916781
0.0842351
0.0957551
0.0889895
0.0888673
0.0885748
0.0920146
0.0695184
0.0854512
0.0815374
0.0926661
0.0884646
0.0956213
0.0541856
0.0775236
0.0958245
0.090631
0.0900978
0.0964662
0.0650275
0.115674
0.0650152
0.0669986
0.0947194
0.0928359
0.0899675
0.0773785
0.0886042
0.094931
0.0865178
0.0942491
0.0903782
0.0954839
0.0880354
0.0834793
0.0932865
0.0902778
0.102381
0.0925679
0.204333
0.0889058
0.0901227
0.0888473
0.0944544
0.0881005
0.0906924
0.0928476
0.0669353
0.0758758
0.0920478
0.0649347
0.0704287
0.0714373
0.0955946
0.0656984
0.0933497
0.0941829
0.0909652
0.0888199
0.0901167
0.0870747
0.0889196
0.0896349
0.0887736
0.0957771
0.0874663
0.0841662
0.091862
0.0584587
0.0947974
0.088812
0.087457
0.0898071
0.0914434
0.0875897
0.082776
0.0944642
0.0562137
0.0986789
0.0598167
0.0960531
0.0901414
0.0947876
0.084089
0.0900297
0.0871058
0.0949495
0.0919664
0.0890305
0.0897775
0.0949156
0.0745721
0.0906427
0.0874832
0.0700266
0.0692996
0.0885135
0.0527455
0.0826355
0.0954605
0.0638514
0.0955865
0.0923444
0.0888372
0.061795
0.0940314
0.0838459
0.127706
0.0877121
0.0898863
0.0944557
0.0871777
0.0890796
0.0862529
0.0860468
0.0932783
0.0946723
0.0879563
0.093402
0.0938279
0.0889011
0.0941055
0.0923563
0.0898272
0.0954228
0.0818643
0.0878453
0.0893026
0.0891572
0.088725
0.0796044
0.0940322
0.0905178
0.237243
0.0939092
0.129876
0.0899275
0.0890406
0.0321675
0.0859381
0.0904298
0.0889889
0.0944922
0.0865343
0.0925785
0.0924958
0.0888792
0.0802151
0.0952566
0.0912171
0.0851921
0.0879326
0.080186
0.0644589
0.094043
0.0945138
0.0912686
0.0648661
0.0853999
0.0914849
0.0824596
0.0893143
0.0890253
0.0894347
0.0894019
0.0868548
0.0844389
0.0944937
0.0880297
0.0639485
0.0797526
0.0868076
0.0821818
0.0908588
0.0519943
0.0870554
0.0942657
0.0573158
0.0900518
0.0892282
0.0914892
0.0951385
0.0924365
0.09335
0.0880934
0.0811391
0.198771
0.09329
0.0938924
0.0940076
0.0933178
0.0943176
0.0845214
0.0948507
0.0888702
0.0547592
0.0871759
0.0640534
0.0895736
0.088997
0.0939077
0.0859856
0.0901835
0.0937346
0.0899232
0.0495065
0.0931417
0.436972
0.0694227
0.0916122
0.0867793
0.0894599
0.0872717
0.06618
0.0590226
0.094698
0.0881208
0.0730101
0.0902005
0.0887025
0.0789094
0.0924801
0.0927024
0.0904823
0.0873154
0.0941113
0.089152
0.0831698
0.0907948
0.0641052
0.0927761
0.0837856
0.0905603
0.0915692
0.066344
0.407787
0.0891425
0.0815166
0.134157
0.0906861
0.0873287
0.0907778
0.0875665
0.0939374
0.0815127
0.0888199
0.343951
0.0842472
0.0927204
0.292194
0.0836314
0.095517
0.0876289
0.0927496
0.0820984
0.0809191
0.0846038
0.09812
0.0787236
0.0908545
0.0934917
0.087982
0.0895604
0.0810378
0.0651376
0.0848722
0.0610169
0.0894488
0.0940055
0.0468531
0.0895106
0.0899232
0.092146
0.0487247
0.0937428
0.0899053
0.080653
0.0850933
0.0888935
0.0914137
0.0871822
0.0616236
0.0505931
0.0818567
0.0757438
0.0908188
0.0784018
0.0852104
0.0824007
0.0621905
0.0809638
0.09252
0.0923853
0.08715
0.0885303
0.0844123
0.0797817
0.0924604
0.0828181
0.067859
0.0933889
0.0964726
0.092496
0.0638223
0.0852115
0.0851499
0.0925625
0.0901685
0.0923648
0.0898765
0.0901359
0.0901051
0.0831223
0.0876226
0.0928501
0.092025
0.0929884
0.153769
0.061844
0.0635687
0.0901963
0.083346
0.0907171
0.0961821
0.0870271
0.0721942
0.0789022
0.0888845
0.0919879
0.0625373
0.068023
0.0834578
0.0975023
0.0814933
0.0868258
0.0795064
0.0931854
0.0977384
0.091292
0.0922708
0.0884434
0.0811896
0.0890242
0.0890325
0.0901567
0.0834684
0.0927329
0.0856258
0.0849573
0.099359
0.0975843
0.088172
0.09252
0.0906176
0.0761863
0.0893464
0.0777797
0.0769037
0.0457866
0.0854903
0.0603143
0.0927325
0.087119
0.0786346
0.0769847
0.0921478
0.0792737
0.0832517
0.0775379
0.0893104
0.0900768
0.13189
0.0904444
0.0780717
0.0864016
0.161805
0.0895752
0.0785222
0.0491244
0.0776044
0.0753927
0.0627406
0.0894787
0.0918515
0.0887611
0.0788033
0.0906345
0.116732
0.18235
0.0844448
0.0895364
0.092496
0.0995671
0.0899825
0.0822961
0.073264
0.0788585
0.0730557
0.114591
0.0878711
0.0444977
0.0720072
0.0884323
0.0908714
0.0876979
0.0828246
0.0904791
0.163912
0.205372
0.096882
0.0820453
0.082791
0.09149
0.0739151
0.086583
0.0884547
0.0761401
0.0900699
0.0914249
0.089384
0.0489924
0.0894779
0.074447
0.106789
0.0589076
0.0900266
0.0899616
0.0915324
0.074862
0.0725303
0.0859527
0.0885133
0.0816357
0.0663748
0.0751107
0.0896033
0.210582
0.0608352
0.0706931
0.0785559
0.118783
0.083783
0.0751815
0.156352
0.0905538
0.0893818
0.0790813
0.0912023
0.090096
0.0917256
0.0917793
0.0826138
0.0894223
0.081456
0.0889374
0.088761
0.208669
0.119048
0.0822597
0.0772101
0.0748072
0.0889129
0.0635834
0.0749558
0.0915846
0.0714881
0.0687489
0.0769033
0.0970761
0.0904582
0.0888974
0.0488918
0.0976161
0.0901215
0.0896369
0.0674528
0.0894569
0.0697862
0.0882449
0.0625319
0.128782
0.0778588
0.0873376
0.0860237
0.116065
0.06342
0.0871711
0.0446931
0.0940519
0.0861931
0.0618011
0.0854654
0.0642429
0.0687863
0.0891104
0.0907798
0.088801
0.0616424
0.0888754
0.064998
0.0831079
0.0666178
0.0587403
0.086634
0.0655585
0.0908914
0.0791215
0.0889393
0.0436588
0.0762515
0.0855508
0.0744589
0.0886032
0.136095
0.104886
0.0878839
0.0816851
0.0657897
0.0818705
0.0903859
0.0791608
0.0657259
0.0445672
0.109967
0.0878854
0.0769536
0.0879565
0.0902128
0.0853799
0.0856572
0.0846573
0.0610509
0.0885619
0.0556704
0.091219
0.0875446
0.088333
0.0642866
0.0588684
0.0886262
0.0655114
0.0883012
0.0564243
0.305276
0.0882553
0.0570854
0.0865453
0.0576435
0.0870757
0.0981153
0.0819041
0.0577457
0.145837
0.0882136
0.0873819
0.0580407
0.200101
0.059895
0.0738019
0.0654597
0.0570445
0.0582509
0.0549617
0.0901793
0.0854529
0.079501
0.0717317
0.0557226
0.0649541
0.0824241
0.0880283
0.084938
0.0583126
0.073317
0.062395
0.0866808
0.0784228
0.125545
0.086444
0.104428
0.0866268
0.0846323
0.0877882
0.0810747
0.0803138
0.0582014
0.0861623
0.0602338
0.0880096
0.0630634
0.077773
0.0836544
0.0874795
0.0646436
0.299727
0.0868505
0.0760091
0.0585698
0.089931
0.0804097
0.0601001
0.0857703
0.216912
0.0545713
0.0768994
0.100441
0.197499
0.0714575
0.0730366
0.0868566
0.099695
0.054019
0.078212
0.0874528
0.13631
0.0761574
0.0803553
0.0782893
0.0578439
0.0876436
0.333149
0.0765421
0.0873924
0.0499729
0.0862266
0.0894605
0.05127
0.0875837
0.087392
0.0730736
0.0817591
0.0739186
0.0876512
0.1889
0.210919
0.0745775
0.0525672
0.0655147
0.189139
0.0872161
0.0782224
0.1872
0.0853007
0.0634457
0.0752057
0.0901674
0.222197
0.213707
0.0657307
0.0756647
0.10518
0.152019
0.132856
0.0613038
0.0632824
0.0615069
0.0563559
0.0817014
0.0834748
0.0843182
0.0801467
0.0823708
0.0868746
0.166223
0.0868003
0.180296
0.236305
0.0869429
0.0738842
0.0543754
0.211801
0.0848983
0.0484724
0.0804207
0.104649
0.0513885
0.107776
0.0857406
0.122071
0.0632208
0.0458473
0.111303
0.0889825
0.136742
0.077983
0.0750695
0.0894678
0.115164
0.0659259
0.119747
0.07959
0.148574
0.124454
0.0570999
0.0457628
0.0617526
0.0620644
0.231999
0.203333
0.127588
0.0863437
0.0668997
0.0847859
0.0860845
0.0631352
0.072224
0.0613291
0.0852247
0.0788905
0.0865636
0.104119
0.0624391
0.0421522
0.0798236
0.0810177
0.0868134
0.0674734
0.044899
0.177937
0.0529673
0.126663
0.0898463
0.08851
0.0862359
0.062161
0.0776075
0.0463675
0.0659357
0.0842345
0.191568
0.0791215
0.0741696
0.0465283
0.105461
0.0662241
0.0616172
0.0597954
0.0722342
0.0846606
0.100327
0.0856378
0.0809839
0.0979712
0.0794257
0.0884233
0.0989663
0.0598249
0.0852123
0.0809204
0.12158
0.0583786
0.0842888
0.0796393
0.0961052
0.0856917
0.0561541
0.0595061
0.0836374
0.153372
0.0854297
0.0615245
0.0836445
0.0865814
0.0854313
0.0567905
0.0546424
0.0821889
0.0457784
0.0857539
0.0428821
0.0771381
0.228502
0.114662
0.114144
0.186377
0.0741121
0.127053
0.084269
0.0657909
0.0455271
0.117973
0.166626
0.0598761
0.0839953
0.0855067
0.0883115
0.0530432
0.0778927
0.0794627
0.0942174
0.0789643
0.0526804
0.0830898
0.0834807
0.0613037
0.0842007
0.0713783
0.0565624
0.0670465
0.114279
0.08296
0.0828479
0.06716
0.0802102
0.0413796
0.144891
0.0580808
0.0839674
0.147098
0.0784305
0.148674
0.0821016
0.0725965
0.148726
0.0765935
0.114722
0.146787
0.0816223
0.0664059
0.0917456
0.141907
0.135684
0.0787661
0.080879
0.0808179
0.070453
0.0609375
0.0819775
0.0549305
0.0790294
0.189227
0.233017
0.131334
0.0731851
0.0655381
0.0777815
0.10535
0.0815884
0.112998
0.112344
0.0792639
0.0768961
0.109107
0.0870021
0.0590075
0.0383233
0.13038
0.101622
0.0759762
0.154933
0.0623027
0.0789347
0.0754895
0.075622
0.077794
0.144257
0.139187
0.0608527
0.0752645
0.134331
0.0794088
0.107604
0.0785848
0.0551947
0.201493
0.174628
0.19969
0.114783
0.0579872
0.0628058
0.0808463
0.0731166
0.0743789
0.0872019
0.0608247
0.0722433
0.085387
0.0776998
0.129081
0.0839445
0.0645633
0.0704097
0.0686886
0.0826068
0.132415
0.0844589
0.0801651
0.137632
0.0774003
0.0767536
0.0764212
0.0729735
0.0635675
0.197719
0.0642687
0.168615
0.11219
0.112087
0.0710323
0.0794099
0.0710459
0.071196
0.0825511
0.0624724
0.0984784
0.0693446
0.168515
0.193619
0.0624855
0.122595
0.0652012
0.121905
0.0744148
0.0859471
0.0597668
0.0686921
0.0647852
0.0564245
0.0348169
0.0829416
0.136094
0.113574
0.0738329
0.189791
0.141741
0.077716
0.0569957
0.0580862
0.206335
0.0696617
0.194867
0.114353
0.0778366
0.0854708
0.203739
0.121149
0.0682321
0.197337
0.0877757
0.0605285
0.122549
0.0682817
0.0530657
0.0672719
0.120696
0.0586785
0.0809682
0.0730548
0.0961557
0.0760671
0.0329185
0.0602976
0.0754729
0.0718493
0.0784861
0.0553643
0.0589326
0.182768
0.0723483
0.069472
0.0668401
0.077906
0.0666875
0.058094
0.0976348
0.132562
0.0568703
0.0819089
0.0612335
0.0467742
0.0449456
0.1114
0.190642
0.0676877
0.0549192
0.110547
0.0738363
0.102647
0.138332
0.0525876
0.060391
0.0644834
0.0576446
0.206052
0.201857
0.0542377
0.118271
0.112152
0.109153
0.050023
0.0487274
0.0597025
0.0653993
0.056624
0.0685167
0.101668
0.0669545
0.047558
0.065877
0.0959273
0.17663
0.0650834
0.0720248
0.0596568
0.0654692
0.0520178
0.0557798
0.0706744
0.106094
0.193251
0.0553349
0.117318
0.0531625
0.156627
0.0536272
0.164959
0.113684
0.185388
0.062113
0.205915
0.062811
0.112695
0.0530394
0.0513432
0.147115
0.0987738
0.0482427
0.0956616
0.0939202
0.132117
0.0534913
0.124649
0.0519428
0.135459
0.0383954
0.0597368
0.0466954
0.179353
0.165705
0.0937997
0.0918522
0.112922
0.103404
0.172487
0.119586
0.0472998
0.0500056
0.0567428
0.0509168
0.158396
0.0949383
0.0806241
0.0376574
0.0473248
0.0432408
0.0497117
0.049739
0.0551166
0.0479371
0.127442
0.0887384
0.0445741
0.201066
0.0789564
0.114258
0.0708458
0.0362342
0.040071
0.064393
0.0341033
0.046305
0.039429
0.0443859
0.0750387
0.124902
0.092173
0.179304
0.0929503
0.128789
0.135217
0.0906311
0.119363
0.137567
0.0985774
0.0872233
0.144212
0.17109
0.132172
0.0838196
0.153033
0.0897735
0.0825309
0.0452543
0.0514511
0.0725789
0.0933809
0.110347
0.0861469
0.159915
0.0345969
0.0998878
0.0436184
0.0480901
0.0461484
0.102328
0.0982465
0.0746
0.0643786
0.0709323
0.0472178
0.0370394
0.0834234
0.0607728
0.0358703
0.0816454
0.0972104
0.100925
0.0752742
0.295087
0.0517754
0.313705
0.0847089
0.0286137
0.0785587
0.0748912
0.360685
0.0651427
0.0468389
0.0794479
0.100227
0.102522
0.316036
0.218667
0.355953
0.20438
0.279981
0.244127
0.0761903
0.187875
0.0710359
0.215719
0.148394
0.183157
0.204183
0.0509371
0.0864996
0.225018
0.557748
0.612925
0.0746106
0.0778053
0.273264
0.055615
0.100673
0.0381703
0.0283969
0.0925868
0.147555
0.144555
0.110582
0.145492
0.136305
0.107453
0.120326
0.122186
0.109786
0.0708594
0.0531209
0.0330448
0.100847
0.178175
0.116196
0.299693
0.0342129
0.0407919
0.126705
0.0589064
0.0380388
0.0426096
0.0773877
0.116878
0.0325954
0.0432502
0.0446179
0.126569
0.0982249
0.0463074
0.0612297
0.124415
0.0481509
0.0982695
0.0458023
0.189096
0.199031
0.0802961
0.0673174
0.0987847
0.0281866
0.0340272
0.146141
0.0699142
0.0980439
0.0312424
0.0982272
0.0755601
0.0961617
0.078216
0.0980046
0.0488872
0.0841419
0.0524259
0.0288022
0.0322485
0.260606
0.0828888
0.107613
0.229981
0.0980987
)
;

boundaryField
{
    patch0
    {
        type            epsilonWallFunction;
        value           nonuniform List<scalar> 
4010
(
0.0843008
0.0843008
0.0941068
0.0941068
0.102773
0.102773
0.101364
0.101364
0.0941846
0.0941846
0.0977871
0.0977871
0.0959054
0.0959054
0.091815
0.091815
0.0911443
0.0911443
0.103897
0.103897
0.0899424
0.0899424
0.0912629
0.0912629
0.0463114
0.0463114
0.0929722
0.0929722
0.0957156
0.0957156
0.0938459
0.0938459
0.047982
0.047982
0.0946805
0.0946805
0.0789823
0.0789823
0.0965209
0.0965209
0.0315545
0.0315545
0.0700131
0.0700131
0.0696017
0.0696017
0.0976239
0.0976239
0.0716091
0.0716091
0.0675394
0.0675394
0.0690542
0.0690542
0.101322
0.101322
0.0891187
0.0891187
0.0926795
0.0926795
0.0639518
0.0639518
0.0695717
0.0695717
0.0718137
0.0718137
0.0554501
0.0554501
0.102449
0.102449
0.0753429
0.0753429
0.0645977
0.0645977
0.0965522
0.0965522
0.0848343
0.0848343
0.0571752
0.0571752
0.064976
0.064976
0.0366629
0.0366629
0.065952
0.065952
0.0673434
0.0673434
0.0941091
0.0941091
0.0716266
0.0716266
0.0869073
0.0869073
0.101162
0.101162
0.026973
0.026973
0.0262118
0.0262118
0.086469
0.086469
0.0385164
0.0385164
0.0711113
0.0711113
0.0837544
0.0837544
0.0498816
0.0498816
0.103677
0.103677
0.0799643
0.0799643
0.0993177
0.0993177
0.099842
0.099842
0.084495
0.084495
0.077734
0.077734
0.0921056
0.0921056
0.0755194
0.0755194
0.0824597
0.0824597
0.0793421
0.0793421
0.10234
0.10234
0.0933083
0.0933083
0.0762223
0.0762223
0.0833913
0.0833913
0.0838898
0.0838898
0.0291932
0.0291932
0.092118
0.092118
0.080185
0.080185
0.0946421
0.0946421
0.0935816
0.0935816
0.0436828
0.0436828
0.102267
0.102267
0.0955653
0.0955653
0.100541
0.100541
0.0829322
0.0829322
0.0988991
0.0988991
0.0734986
0.0734986
0.0890705
0.0890705
0.0305455
0.0305455
0.0761769
0.0761769
0.0798117
0.0798117
0.102287
0.102287
0.0954553
0.0954553
0.0253425
0.0253425
0.0284579
0.0284579
0.0940833
0.0940833
0.0735205
0.0735205
0.0637053
0.0637053
0.0624239
0.0624239
0.0323758
0.0323758
0.0694201
0.0694201
0.101982
0.101982
0.0982953
0.0982953
0.0835364
0.0835364
0.0355649
0.0355649
0.103029
0.103029
0.0323715
0.0323715
0.08404
0.08404
0.0780351
0.0780351
0.0636794
0.0636794
0.0992916
0.0992916
0.0967908
0.0967908
0.0609726
0.0609726
0.085416
0.085416
0.0678122
0.0678122
0.100736
0.100736
0.085496
0.085496
0.0984053
0.0984053
0.0937504
0.0937504
0.10088
0.10088
0.0261365
0.0261365
0.103081
0.103081
0.0948547
0.0948547
0.0879678
0.0879678
0.101788
0.101788
0.0655989
0.0655989
0.0896359
0.0896359
0.0302324
0.0302324
0.0254909
0.0254909
0.093417
0.093417
0.0683873
0.0683873
0.04969
0.04969
0.0948095
0.0948095
0.0804881
0.0804881
0.140045
0.140045
0.100164
0.100164
0.102019
0.102019
0.363834
0.363834
0.0935433
0.0935433
0.0368784
0.0368784
0.07374
0.07374
0.0988753
0.0988753
0.0958787
0.0958787
0.0984776
0.0984776
0.10162
0.10162
0.102896
0.102896
0.0939055
0.0939055
0.593253
0.593253
0.593253
0.42671
0.42671
0.42671
0.100888
0.100888
0.068213
0.068213
0.0608734
0.0608734
0.0335347
0.0335347
0.0877353
0.0877353
0.0894535
0.0894535
0.082054
0.082054
0.181388
0.181388
0.181388
0.0421708
0.0421708
0.101838
0.101838
0.0985553
0.0985553
0.0685879
0.0685879
0.0885632
0.0885632
0.102674
0.102674
0.0981705
0.0981705
0.58247
0.58247
0.0946354
0.0946354
0.0467064
0.0467064
0.101554
0.101554
0.0944947
0.0944947
0.0799907
0.0799907
0.0737518
0.0737518
0.0766163
0.0766163
0.113509
0.113509
0.101435
0.101435
0.0824237
0.0824237
0.076374
0.076374
0.0942621
0.0942621
0.0985377
0.0985377
0.0794828
0.0794828
0.103394
0.103394
0.0487006
0.0487006
0.0929171
0.0929171
0.0962854
0.0962854
0.081372
0.081372
0.0999499
0.0999499
0.0642029
0.0642029
0.0969337
0.0969337
0.0987591
0.0987591
0.0763934
0.0763934
0.0262878
0.0262878
0.0947536
0.0947536
0.0436126
0.0436126
0.0706587
0.0706587
0.101042
0.101042
0.0970726
0.0970726
0.0541743
0.0541743
0.0917683
0.0917683
0.0979073
0.0979073
0.0958675
0.0958675
0.0849755
0.0849755
0.191619
0.191619
0.191619
0.0758063
0.0758063
0.0501327
0.0501327
0.0560077
0.0560077
0.0485159
0.0485159
0.230257
0.230257
0.0971737
0.0971737
0.0837776
0.0837776
0.0893912
0.0893912
0.0874368
0.0874368
0.0638994
0.0638994
0.0941899
0.0941899
0.0397226
0.0397226
0.036599
0.036599
0.369069
0.369069
0.369069
0.100057
0.100057
0.0931395
0.0931395
0.0991016
0.0991016
0.0842849
0.0842849
0.06997
0.06997
0.0988252
0.0988252
0.0893061
0.0893061
0.0555571
0.0555571
0.0904238
0.0904238
0.0931516
0.0931516
0.0634896
0.0634896
0.0879642
0.0879642
0.0833131
0.0833131
0.0990045
0.0990045
0.0890896
0.0890896
0.0753805
0.0753805
0.0959156
0.0959156
0.099543
0.099543
0.0913869
0.0913869
0.0501658
0.0501658
0.240589
0.240589
0.0894745
0.0894745
0.0569426
0.0569426
0.145752
0.145752
0.0807585
0.0807585
0.339744
0.339744
0.339744
0.099259
0.099259
0.0904153
0.0904153
0.0933772
0.0933772
0.202603
0.202603
0.202603
0.0973784
0.0973784
0.0582566
0.0582566
0.099004
0.099004
0.041123
0.041123
0.460594
0.460594
0.0345926
0.0345926
0.0904964
0.0904964
0.102651
0.102651
0.0983856
0.0983856
0.0989125
0.0989125
0.0966218
0.0966218
0.123856
0.123856
0.0905575
0.0905575
0.0925464
0.0925464
0.100688
0.100688
0.0990464
0.0990464
0.0682124
0.0682124
0.0578063
0.0578063
0.0638787
0.0638787
0.0897663
0.0897663
0.0708485
0.0708485
0.0924772
0.0924772
0.0801922
0.0801922
0.0994677
0.0994677
0.0708642
0.0708642
0.0881038
0.0881038
0.0431963
0.0431963
0.0962288
0.0962288
0.0512127
0.0512127
0.248729
0.248729
0.0527837
0.0527837
0.085758
0.085758
0.0688962
0.0688962
0.0610394
0.0610394
0.0890867
0.0890867
0.0986675
0.0986675
0.0922833
0.0922833
0.0803468
0.0803468
0.100005
0.100005
0.0531169
0.0531169
0.203528
0.203528
0.300626
0.300626
0.300626
0.0918071
0.0918071
0.095186
0.095186
0.0639621
0.0639621
0.0975527
0.0975527
0.0963718
0.0963718
0.140062
0.140062
0.0917398
0.0917398
0.0588501
0.0588501
0.0982073
0.0982073
0.0827695
0.0827695
0.0848761
0.0848761
0.0991626
0.0991626
0.024086
0.024086
0.0827004
0.0827004
0.098594
0.098594
0.0421818
0.0421818
0.0939159
0.0939159
0.0991062
0.0991062
0.250369
0.250369
0.250369
0.0992286
0.0992286
0.0987449
0.0987449
0.0906372
0.0906372
0.0946114
0.0946114
0.0650549
0.0650549
0.0518757
0.0518757
0.0985337
0.0985337
0.0589405
0.0589405
0.095121
0.095121
0.0371797
0.0371797
0.0899067
0.0899067
0.0944772
0.0944772
0.0778767
0.0778767
0.0996798
0.0996798
0.0528259
0.0528259
0.0708709
0.0708709
0.093059
0.093059
0.0975997
0.0975997
0.0779504
0.0779504
0.0857695
0.0857695
0.054669
0.054669
0.100351
0.100351
0.0879206
0.0879206
0.0694497
0.0694497
0.0990577
0.0990577
0.0638201
0.0638201
0.0617521
0.0617521
0.101823
0.101823
0.0955483
0.0955483
0.0543294
0.0543294
0.0925697
0.0925697
0.080968
0.080968
0.0961255
0.0961255
0.0882721
0.0882721
0.0843394
0.0843394
0.0872471
0.0872471
0.0982126
0.0982126
0.0959505
0.0959505
0.100429
0.100429
0.0988987
0.0988987
0.091015
0.091015
0.0752341
0.0752341
0.0440115
0.0440115
0.0983851
0.0983851
0.0924008
0.0924008
0.284659
0.284659
0.0929359
0.0929359
0.0896988
0.0896988
0.0652479
0.0652479
0.0685725
0.0685725
0.477069
0.477069
0.243422
0.243422
0.0985697
0.0985697
0.0382382
0.0382382
0.0971225
0.0971225
0.0286583
0.0286583
0.0936052
0.0936052
0.0614911
0.0614911
0.0575727
0.0575727
0.0875824
0.0875824
0.0987898
0.0987898
0.0985923
0.0985923
0.0891204
0.0891204
0.0711604
0.0711604
0.0972223
0.0972223
0.0784274
0.0784274
0.0597416
0.0597416
0.0956088
0.0956088
0.0983592
0.0983592
0.0982635
0.0982635
0.0774123
0.0774123
0.0630344
0.0630344
0.0971244
0.0971244
0.0736014
0.0736014
0.0720116
0.0720116
0.098539
0.098539
0.0978168
0.0978168
0.0744988
0.0744988
0.0927988
0.0927988
0.092956
0.092956
0.0955176
0.0955176
0.0638458
0.0638458
0.0839553
0.0839553
0.0550783
0.0550783
0.0982504
0.0982504
0.0856194
0.0856194
0.0903419
0.0903419
0.0707246
0.0707246
0.0977153
0.0977153
0.261962
0.261962
0.082446
0.082446
0.0695705
0.0695705
0.0921795
0.0921795
0.0966169
0.0966169
0.429035
0.429035
0.429035
0.0697614
0.0697614
0.0763808
0.0763808
0.0966214
0.0966214
0.0943718
0.0943718
0.0725284
0.0725284
0.0900722
0.0900722
0.0489955
0.0489955
0.0548505
0.0548505
0.277448
0.277448
0.277448
0.0879254
0.0879254
0.0982669
0.0982669
0.0923372
0.0923372
0.0634086
0.0634086
0.0704474
0.0704474
0.0868565
0.0868565
0.0844743
0.0844743
0.0950961
0.0950961
0.0935086
0.0935086
0.0960487
0.0960487
0.0909456
0.0909456
0.0984226
0.0984226
0.0979994
0.0979994
0.0839678
0.0839678
0.100543
0.100543
0.0981837
0.0981837
0.061947
0.061947
0.0983992
0.0983992
0.0412915
0.0412915
0.0736816
0.0736816
0.0978953
0.0978953
0.0995564
0.0995564
0.0760293
0.0760293
0.0803796
0.0803796
0.080345
0.080345
0.0889058
0.0889058
0.098403
0.098403
0.0832535
0.0832535
0.0879106
0.0879106
0.0970215
0.0970215
0.0768761
0.0768761
0.0980025
0.0980025
0.0571174
0.0571174
0.0942721
0.0942721
0.0756964
0.0756964
0.0566614
0.0566614
0.0727318
0.0727318
0.0830731
0.0830731
0.0754385
0.0754385
0.0930462
0.0930462
0.549922
0.549922
0.549922
0.0889043
0.0889043
0.0863895
0.0863895
0.0693002
0.0693002
0.0906197
0.0906197
0.0975364
0.0975364
0.0827785
0.0827785
0.0883291
0.0883291
0.0969117
0.0969117
0.0721383
0.0721383
0.0749048
0.0749048
0.0978625
0.0978625
0.0981358
0.0981358
0.0888674
0.0888674
0.094383
0.094383
0.097132
0.097132
0.0791308
0.0791308
0.0613011
0.0613011
0.0894994
0.0894994
0.0511581
0.0511581
0.0913623
0.0913623
0.0926398
0.0926398
0.0958545
0.0958545
0.0921009
0.0921009
0.097138
0.097138
0.0734596
0.0734596
0.0863142
0.0863142
0.0786462
0.0786462
0.0979713
0.0979713
0.0683007
0.0683007
0.096183
0.096183
0.0698451
0.0698451
0.0938658
0.0938658
0.0935399
0.0935399
0.0963209
0.0963209
0.0880037
0.0880037
0.0956872
0.0956872
0.0890459
0.0890459
0.0931327
0.0931327
0.0814171
0.0814171
0.0753107
0.0753107
0.0787975
0.0787975
0.0962454
0.0962454
0.0852154
0.0852154
0.0983822
0.0983822
0.0583795
0.0583795
0.0835788
0.0835788
0.0877114
0.0877114
0.0979663
0.0979663
0.097235
0.097235
0.0978169
0.0978169
0.0945808
0.0945808
0.0900017
0.0900017
0.076713
0.076713
0.0870206
0.0870206
0.0974402
0.0974402
0.0978537
0.0978537
0.0606052
0.0606052
0.0785026
0.0785026
0.0477708
0.0477708
0.0912391
0.0912391
0.0975064
0.0975064
0.0749605
0.0749605
0.0849256
0.0849256
0.0972595
0.0972595
0.091738
0.091738
0.097812
0.097812
0.0909841
0.0909841
0.0874672
0.0874672
0.0920966
0.0920966
0.0928478
0.0928478
0.0806159
0.0806159
0.0744754
0.0744754
0.0929227
0.0929227
0.0959427
0.0959427
0.0894013
0.0894013
0.0973221
0.0973221
0.0966886
0.0966886
0.0974278
0.0974278
0.091074
0.091074
0.0793093
0.0793093
0.0772711
0.0772711
0.0847501
0.0847501
0.0759314
0.0759314