/*--------------------------------*- C++ -*----------------------------------*\
  =========                 |
  \\      /  F ield         | OpenFOAM: The Open Source CFD Toolbox
   \\    /   O peration     | Website:  https://openfoam.org
    \\  /    A nd           | Version:  8
     \\/     M anipulation  |
\*---------------------------------------------------------------------------*/
FoamFile
{
    version     2.0;
    format      ascii;
    class       volScalarField;
    location    "0.35";
    object      k;
}
// * * * * * * * * * * * * * * * * * * * * * * * * * * * * * * * * * * * * * //

dimensions      [0 2 -2 0 0 0 0];

internalField   nonuniform List<scalar> 
1924
(
0.0476292
0.0512843
0.0544778
0.0539606
0.0513512
0.0527014
0.0520457
0.0506692
0.0504848
0.054902
0.05014
0.0506537
0.0319338
0.0513078
0.0521095
0.0513754
0.0327011
0.0518877
0.0456119
0.0525162
0.0247534
0.0421337
0.0419122
0.0528657
0.0428038
0.0412932
0.0419446
0.0539772
0.0495156
0.0508577
0.0395613
0.0419929
0.0427708
0.0359901
0.0543853
0.0441614
0.0400282
0.0522447
0.0479582
0.0367328
0.0402132
0.02733
0.0406084
0.0410197
0.0514096
0.0427974
0.0486142
0.0539324
0.022317
0.0218871
0.0485871
0.0282546
0.0425688
0.0475618
0.0336937
0.0548304
0.0459365
0.0532748
0.0534773
0.0479246
0.0451388
0.0508551
0.044297
0.0470028
0.0458881
0.0543565
0.0513582
0.0445072
0.0474084
0.0475664
0.023514
0.0508467
0.0461069
0.0515925
0.0511975
0.0306253
0.0543353
0.0519283
0.0537182
0.0471704
0.0531808
0.0437736
0.0495629
0.0242197
0.0444828
0.0459153
0.0543346
0.0520587
0.0214018
0.0231355
0.0516376
0.0437246
0.0396823
0.0392153
0.0251996
0.0419633
0.0542366
0.0530023
0.0476251
0.0267303
0.0546025
0.0251885
0.0478712
0.0455256
0.0397545
0.0532791
0.0524737
0.0385414
0.048188
0.0414664
0.0538024
0.0482461
0.0528854
0.0512885
0.0538468
0.0218351
0.0545974
0.0517169
0.0491343
0.0541696
0.0402599
0.0261687
0.0240541
0.0214824
0.0513674
0.041724
0.0333889
0.0516547
0.0464317
0.03344
0.0536055
0.0542766
0.029883
0.0512086
0.0274537
0.0439612
0.0531052
0.0520397
0.0531506
0.0540771
0.0545542
0.0515299
0.0357392
0.0283521
0.053789
0.0414452
0.0385335
0.0257804
0.0490195
0.0496919
0.0468904
0.0263737
0.0300485
0.0542075
0.052966
0.0417648
0.0259603
0.0544681
0.0529122
0.041278
0.0516153
0.0320524
0.0540423
0.0271065
0.0460928
0.0439406
0.0450432
0.025465
0.0540479
0.0473344
0.0446081
0.0514156
0.0530036
0.0460348
0.0547324
0.0331482
0.0509605
0.0196058
0.0465201
0.0534229
0.0399364
0.0524918
0.0530937
0.0449281
0.0219397
0.0516104
0.030747
0.0426298
0.0539121
0.052497
0.0356645
0.0505996
0.0528401
0.0519835
0.0482723
0.0273571
0.0446744
0.0337923
0.0364224
0.0330394
0.0337004
0.052459
0.0478628
0.0498517
0.0488575
0.0398208
0.0513751
0.028905
0.0273494
0.0251076
0.0281615
0.0512294
0.0533563
0.0479951
0.0423425
0.0531098
0.0496138
0.0361724
0.0501524
0.051042
0.039553
0.0491468
0.0476654
0.0533138
0.0498307
0.0444794
0.0521698
0.0533733
0.0506143
0.0337905
0.0285122
0.0499303
0.0368209
0.0236543
0.0465705
0.0242448
0.0533875
0.0502041
0.051379
0.0283945
0.0526636
0.0374272
0.0532987
0.0295839
0.0443472
0.0263503
0.0504207
0.0544687
0.0529556
0.053138
0.0523316
0.0292774
0.0503104
0.0510215
0.0537901
0.0533097
0.0415463
0.0371848
0.0397033
0.0501056
0.0426194
0.0510508
0.046246
0.0533449
0.0425361
0.0491694
0.0304996
0.0521639
0.0342392
0.035663
0.0349092
0.0482864
0.0416245
0.0386062
0.0497619
0.0530955
0.0510766
0.0463979
0.0536189
0.0351362
0.034102
0.0294656
0.0507942
0.0519395
0.0395725
0.0526612
0.0523583
0.0312553
0.0508585
0.037677
0.0529978
0.0471245
0.0481324
0.0533378
0.0206597
0.0471427
0.0531319
0.0300563
0.0513177
0.0533179
0.0317756
0.0533686
0.0531869
0.0501301
0.0518919
0.040308
0.0344516
0.0531128
0.0376696
0.0517723
0.0276414
0.0498729
0.0517059
0.0452613
0.0534422
0.0348855
0.0426343
0.0513633
0.0527912
0.0455054
0.0482799
0.0357441
0.0536406
0.0491288
0.0421229
0.053208
0.0398322
0.0388959
0.05416
0.0521011
0.0356723
0.0510678
0.0464859
0.0523998
0.0492388
0.0479306
0.0489973
0.052913
0.0521892
0.0536844
0.0531397
0.050276
0.0442472
0.0309221
0.0530418
0.0508804
0.0304688
0.0511738
0.0498031
0.0403744
0.0416308
0.0436133
0.0363342
0.0531133
0.0281389
0.0524905
0.0232306
0.05156
0.0386874
0.0370429
0.0491718
0.0531975
0.0531186
0.049732
0.0426418
0.0524737
0.0455164
0.0378586
0.0520908
0.0529798
0.0529917
0.0452983
0.0393725
0.0525913
0.0436878
0.0161382
0.0531078
0.0528215
0.0439803
0.0510752
0.0510363
0.0519002
0.0398174
0.0478637
0.0359569
0.0529843
0.0482415
0.0501794
0.0425617
0.0526622
0.0349444
0.0470662
0.0421739
0.0508802
0.0523039
0.0247669
0.042125
0.0447239
0.0524737
0.0515601
0.0431812
0.0499055
0.0331701
0.0358703
0.0225217
0.0491898
0.0529701
0.0509089
0.0394994
0.042386
0.0489092
0.0478355
0.0520764
0.0511784
0.0522271
0.0502552
0.0529898
0.0529076
0.0475672
0.0537154
0.0529697
0.0387922
0.0530063
0.0296159
0.0436413
0.0528531
0.0534071
0.0442296
0.0462763
0.046253
0.0495496
0.05297
0.0473644
0.0491065
0.0524629
0.0449452
0.0528877
0.0367108
0.0514539
0.0444508
0.0366497
0.043301
0.047512
0.0443496
0.0511121
0.0294437
0.0497074
0.0485339
0.0420478
0.0502269
0.0527133
0.0472007
0.0494974
0.0525864
0.0430612
0.0442693
0.0528243
0.052962
0.0494711
0.0515001
0.0524976
0.0457911
0.0385825
0.0497148
0.0341409
0.0504906
0.0509614
0.0521834
0.0508737
0.0525086
0.0435504
0.0485045
0.0455593
0.0528569
0.0413411
0.0521431
0.0418444
0.0516256
0.0512572
0.0522476
0.0493668
0.0520076
0.0495322
0.0511084
0.0466658
0.0442825
0.0456462
0.0522934
0.0480771
0.0530114
0.03728
0.0474589
0.049033
0.0528052
0.0526149
0.0527819
0.0516039
0.0499097
0.0448471
0.0487978
0.0526854
0.0528568
0.0382651
0.0455268
0.0325925
0.0503825
0.0527309
0.044135
0.0479835
0.0526074
0.0505176
0.0527673
0.0502715
0.0491606
0.0507107
0.0509686
0.0463396
0.0441039
0.0511295
0.0521154
0.0496767
0.0526645
0.0523435
0.0526625
0.0504773
0.0459996
0.0450578
0.0478256
0.0445112
0.0521669
0.0498066
0.0520829
0.048604
0.0478474
0.0367669
0.0513742
0.0521747
0.0421393
0.0389345
0.0455735
0.0476527
0.0486446
0.0490261
0.0495061
0.0525541
0.0481226
0.0444998
0.0454765
0.0515359
0.0528034
0.0474426
0.0500288
0.0524939
0.0494491
0.0457513
0.0485472
0.048057
0.0490116
0.047906
0.0393321
0.0462417
0.0497469
0.0358565
0.0503312
0.0390978
0.0462351
0.0521099
0.0523204
0.0450787
0.0483412
0.052554
0.0491293
0.0454359
0.0506456
0.0458441
0.051246
0.0486547
0.0336694
0.0523322
0.0490102
0.0474578
0.05214
0.0512297
0.0509316
0.0462349
0.0490378
0.0524153
0.0496326
0.052129
0.0500514
0.0459185
0.0496218
0.0330389
0.0474659
0.0492594
0.0524087
0.0514368
0.0536738
0.0515733
0.0497756
0.0364821
0.0523527
0.0520992
0.0417671
0.0491972
0.0516475
0.0457296
0.0507152
0.0440744
0.0491707
0.0464086
0.0526988
0.0489356
0.0530991
0.0482005
0.0517476
0.0502178
0.0378172
0.0417185
0.0460271
0.0522928
0.0519451
0.0513864
0.0474941
0.0518383
0.0438349
0.0494784
0.0520435
0.0471594
0.0494353
0.0524201
0.0480008
0.0535551
0.0497313
0.0494543
0.0389872
0.0473139
0.0456762
0.0492342
0.0523193
0.0503575
0.0506588
0.0490481
0.0465921
0.0503126
0.0524218
0.0482193
0.0519425
0.0495698
0.0413899
0.0496023
0.0508713
0.0546757
0.051083
0.0495055
0.0511313
0.0495584
0.050001
0.0468764
0.0495369
0.0480165
0.0497167
0.0439787
0.0519022
0.0512762
0.0403819
0.0477386
0.0522967
0.049584
0.0493439
0.0489831
0.0506368
0.0421437
0.0528828
0.052364
0.0517521
0.0511788
0.0524502
0.0491166
0.049786
0.0521107
0.0520452
0.0519074
0.0516857
0.0483092
0.0519484
0.0514613
0.0413495
0.0520043
0.0497849
0.0502429
0.0519742
0.0513923
0.0480424
0.0494589
0.0520904
0.0498102
0.0467515
0.0493119
0.049049
0.0504459
0.0493436
0.0489525
0.0363286
0.0466057
0.0494668
0.0505412
0.0476745
0.0520512
0.0495321
0.0494918
0.0493885
0.0506776
0.0419704
0.0481421
0.0469014
0.0509318
0.0493438
0.0520374
0.0354324
0.0451619
0.0521454
0.050094
0.0499446
0.0523576
0.0147362
0.0138802
0.0401871
0.0408064
0.0516628
0.0510082
0.049894
0.045096
0.0493622
0.0517868
0.0485259
0.0515439
0.0500443
0.0519981
0.0491857
0.0474804
0.0511898
0.0499689
0.0199338
0.0510836
0.0324227
0.0494994
0.0499551
0.0494835
0.0515548
0.0491531
0.0502083
0.0512254
0.0409103
0.0445009
0.0508391
0.0403782
0.0423926
0.0427411
0.052057
0.0404327
0.0512253
0.0515213
0.050261
0.0494436
0.0499563
0.048751
0.0495047
0.0497806
0.0494001
0.0521387
0.0489029
0.0477218
0.0506388
0.0372829
0.0517097
0.0494707
0.0488865
0.049845
0.0504668
0.0490174
0.0471488
0.0516797
0.0363634
0.0532247
0.037979
0.0522188
0.0499563
0.0517193
0.0476912
0.049925
0.0488355
0.0517776
0.0506864
0.0495485
0.0498002
0.0517517
0.0439766
0.0501461
0.0489793
0.0422083
0.0417405
0.049317
0.0348695
0.0470904
0.051995
0.0396234
0.0520671
0.0508449
0.0494823
0.0388554
0.051417
0.0475989
0.0234652
0.0490669
0.0498741
0.0516637
0.0488688
0.0495449
0.0484826
0.0484364
0.0513009
0.0516889
0.0491604
0.0512598
0.051341
0.0495102
0.0515215
0.0508559
0.049853
0.0520058
0.0468057
0.0491188
0.0496136
0.0496002
0.0493849
0.0459318
0.0515145
0.050114
0.0194295
0.0515731
0.0251196
0.0498649
0.0495303
0.0250927
0.0483933
0.0500671
0.0495476
0.0516759
0.0486188
0.0510775
0.0509224
0.0495011
0.0461486
0.0519453
0.0503977
0.0481138
0.0491545
0.0462178
0.0399332
0.0515107
0.0516319
0.0504248
0.0400217
0.048189
0.0505175
0.0470897
0.0496434
0.0495563
0.0497067
0.0496838
0.0487413
0.0478216
0.0517174
0.0491949
0.0397112
0.0459698
0.0487219
0.0191989
0.0502479
0.0345199
0.048819
0.0515935
0.036912
0.0499824
0.0496338
0.0505247
0.0520226
0.0509052
0.0512504
0.0492223
0.0465529
0.0322783
0.0511756
0.0513812
0.0514234
0.0511619
0.0516045
0.0478565
0.0517843
0.0494965
0.0358523
0.0488675
0.0397865
0.0497599
0.0495581
0.0513951
0.048418
0.0499997
0.0513314
0.0498842
0.0339941
0.0510972
0.0291828
0.0419845
0.0505831
0.0487172
0.049721
0.0489084
0.0405918
0.0376934
0.0517292
0.0492372
0.0433685
0.0500055
0.0494347
0.0456629
0.0510205
0.0511143
0.050115
0.0489302
0.0515293
0.0496189
0.0473453
0.0502571
0.0396309
0.0510447
0.0475842
0.0501562
0.0505699
0.040635
0.0351285
0.0496118
0.0467017
0.0262213
0.0502119
0.0489416
0.0502555
0.0490081
0.051452
0.04671
0.0495039
0.0288564
0.0477635
0.0510236
0.0269812
0.0475154
0.0121694
0.0490322
0.0510245
0.0469335
0.0465034
0.0479031
0.053052
0.0456469
0.050291
0.05125
0.0491922
0.0497917
0.0465399
0.0401386
0.0480102
0.0384633
0.0497464
0.0514572
0.0321937
0.0497798
0.0499261
0.0508032
0.0331274
0.0513811
0.0499267
0.0463745
0.0480993
0.0495382
0.0505206
0.0488945
0.0387074
0.0339059
0.0468396
0.0443791
0.0502805
0.0455048
0.0481456
0.0470513
0.0389082
0.0464949
0.0509523
0.0509023
0.0488497
0.0494074
0.0478182
0.046043
0.0509212
0.0472143
0.0411723
0.0512344
0.05246
0.0508617
0.0396331
0.0481498
0.0480981
0.0509428
0.050024
0.0508151
0.0498931
0.050015
0.0499973
0.0473348
0.0490649
0.0509956
0.050698
0.0510479
0.0193735
0.0387466
0.0395231
0.0500404
0.0474259
0.0502488
0.0521836
0.0487807
0.0430764
0.0456976
0.0495272
0.050747
0.0391482
0.0414104
0.0474743
0.0528093
0.0466981
0.0487683
0.045928
0.0511599
0.0528764
0.0504767
0.0508369
0.0493798
0.0466261
0.0496019
0.0496066
0.0500278
0.0474867
0.0509576
0.0482731
0.0480595
0.0533307
0.052886
0.04928
0.0508775
0.0502135
0.0446551
0.0497197
0.0452578
0.0449415
0.0317044
0.0482228
0.0381158
0.0509751
0.0488767
0.0456397
0.0449628
0.0507756
0.0458526
0.0474118
0.0451952
0.0497069
0.0500018
0.0259265
0.0501588
0.0454104
0.048613
0.0298008
0.0498049
0.0455921
0.0332115
0.0451849
0.0443371
0.0392439
0.049769
0.0506668
0.0494965
0.0456999
0.0502411
0.0240193
0.0323357
0.0478647
0.049792
0.0508876
0.0534042
0.0499686
0.0470057
0.0434917
0.045724
0.0434103
0.0238365
0.0491616
0.0311875
0.0429856
0.0493754
0.0503304
0.0491021
0.0472081
0.0501777
0.0168227
0.0195586
0.0526623
0.0469065
0.0472446
0.0504869
0.0437541
0.0486726
0.0493825
0.0446135
0.0500037
0.0504662
0.0497111
0.0332567
0.0497724
0.0439696
0.0227507
0.0375824
0.0500085
0.0499754
0.0505319
0.0441401
0.0431959
0.0484411
0.0493925
0.0468079
0.0407288
0.0442444
0.0498341
0.0213545
0.038425
0.0424547
0.0456093
0.02439
0.0476088
0.0442846
0.0295124
0.0190784
0.0497383
0.0458332
0.0504099
0.0500448
0.0505857
0.050596
0.047123
0.0497651
0.0466805
0.0495629
0.0494963
0.0221559
0.0243956
0.0470423
0.0174174
0.0440999
0.0495546
0.039646
0.044206
0.0505213
0.0427766
0.0416733
0.0449224
0.0526921
0.0501796
0.0495502
0.0331543
0.0526917
0.0500474
0.0498575
0.0411424
0.0497587
0.0420994
0.0492978
0.0391535
0.0255136
0.0453308
0.048956
0.0484567
0.0239541
0.0395324
0.0488951
0.031208
0.0210072
0.0485587
0.0387958
0.0482525
0.0398843
0.0416806
0.0496523
0.0502352
0.0495159
0.038774
0.0495536
0.040207
0.0473455
0.0407886
0.0375915
0.0487412
0.0404287
0.0502622
0.0457765
0.0495681
0.0308144
0.0446755
0.0482956
0.0440228
0.0494148
0.0148778
0.0124886
0.0491614
0.0468162
0.0405247
0.0468416
0.0500885
0.0457923
0.0404319
0.0312181
0.0231138
0.0491542
0.0449709
0.0491884
0.0500099
0.0482621
0.048384
0.047966
0.0385187
0.0494401
0.0361996
0.0503866
0.0490875
0.0493446
0.0398585
0.0375816
0.0494305
0.0403917
0.0493217
0.0365305
0.026696
0.0493025
0.0368215
0.0487187
0.0370693
0.0488995
0.0215286
0.0469088
0.0370706
0.0308039
0.0492906
0.0490216
0.0372441
0.0215381
0.0379896
0.0437607
0.0403161
0.036799
0.0373527
0.0358885
0.0499927
0.0482358
0.0459986
0.0428699
0.0362219
0.0402345
0.0470786
0.0492083
0.0480451
0.0373529
0.0435009
0.0390712
0.0487437
0.0456032
0.0250787
0.048676
0.0224133
0.0486813
0.0479282
0.0491348
0.0465749
0.0463471
0.0373593
0.0485634
0.038132
0.0492272
0.039325
0.0453279
0.0475633
0.0490041
0.0400247
0.0283298
0.0487648
0.0445924
0.0374246
0.0499032
0.0463828
0.0382155
0.0484084
0.0228177
0.0357164
0.0449621
0.0536953
0.0215609
0.0427231
0.0434479
0.0487592
0.0534298
0.035473
0.0455457
0.0490127
0.0233018
0.0447164
0.0463568
0.0455759
0.0372107
0.0490685
0.0305955
0.0448922
0.0489514
0.0336767
0.0485658
0.049726
0.0342618
0.0490481
0.0489702
0.0433989
0.0468435
0.0437328
0.0490461
0.0209407
0.022531
0.0439906
0.0348488
0.0404721
0.0207328
0.048914
0.0455459
0.0306134
0.0482242
0.0395185
0.0443141
0.0499863
0.0310285
0.0227048
0.0405655
0.0444572
0.0226216
0.0166775
0.0152349
0.0386027
0.0394101
0.0388392
0.0364931
0.046796
0.0474675
0.0477994
0.0462696
0.0470517
0.0487896
0.0187699
0.0487434
0.0205155
0.0245759
0.0487805
0.043769
0.0356111
0.0225424
0.0480176
0.0329956
0.0463148
0.0225034
0.0343026
0.0229632
0.0483759
0.0246069
0.0393862
0.0317759
0.0234792
0.0495364
0.0267583
0.0454466
0.0442151
0.0201947
0.0240442
0.040641
0.0246985
0.046025
0.025634
0.0252957
0.036885
0.0317076
0.0389366
0.0390561
0.0287607
0.021922
0.0256155
0.0485676
0.0409083
0.0480229
0.048469
0.0394585
0.0431138
0.0386564
0.0481747
0.0456129
0.0486614
0.0224156
0.0391449
0.0300343
0.0461379
0.0465448
0.0487507
0.0411424
0.0313884
0.0198945
0.0349922
0.025403
0.0498627
0.0493625
0.0485423
0.0389716
0.0452934
0.0320274
0.040638
0.0478076
0.0211187
0.04583
0.0438445
0.0320931
0.0227152
0.0407486
0.0388734
0.0379898
0.0430896
0.0479545
0.0218425
0.0482971
0.0465123
0.0214924
0.0459771
0.0493235
0.021759
0.0381058
0.0481247
0.046472
0.0246703
0.0374341
0.0477787
0.0459992
0.0212124
0.0483235
0.0364668
0.0379431
0.0475743
0.0182474
0.0482158
0.038819
0.0475341
0.0486263
0.04823
0.0367329
0.0357284
0.0469545
0.0317441
0.0483128
0.0303928
0.0451033
0.0237618
0.0239448
0.0238977
0.0208392
0.0438293
0.0254774
0.0477727
0.0405705
0.0316272
0.0240447
0.0190317
0.0378982
0.047694
0.0482258
0.0492821
0.0350275
0.045335
0.0459268
0.0209278
0.0457914
0.0348765
0.0473391
0.0474654
0.0387342
0.0477521
0.0427644
0.0365713
0.0410665
0.0236675
0.0473086
0.0472224
0.0410921
0.0462047
0.0296758
0.0174868
0.0372352
0.0193539
0.0176574
0.0455767
0.0177745
0.0469709
0.0431951
0.0177653
0.0448835
0.0239682
0.0175905
0.0467644
0.0407615
0.020553
0.0172017
0.016815
0.0456502
0.046428
0.0464653
0.0423499
0.0384476
0.046889
0.0359038
0.0457401
0.0190525
0.0221354
0.0165831
0.0434541
0.0404583
0.0453154
0.0226148
0.046735
0.0235915
0.0235808
0.0458309
0.0449586
0.0231301
0.0198294
0.0376106
0.0281935
0.0165952
0.022079
0.0446342
0.0181215
0.0390878
0.0457115
0.0443925
0.0444252
0.0452616
0.0174399
0.0170318
0.0385363
0.0443458
0.0166366
0.0458667
0.0227513
0.0455854
0.036038
0.0217873
0.0200931
0.0219121
0.0239667
0.037176
0.0393194
0.0464196
0.0434713
0.0439857
0.0488545
0.0384439
0.0430675
0.0481619
0.0452189
0.0162026
0.047606
0.0399787
0.0423574
0.0168543
0.0471149
0.0167891
0.0478067
0.0461847
0.0169476
0.0183287
0.0448512
0.0447174
0.0433795
0.039604
0.02176
0.0399069
0.0193962
0.0232426
0.0236113
0.0426209
0.0458512
0.0425534
0.0426386
0.0470828
0.0391326
0.0216071
0.0419149
0.0195706
0.0214434
0.0392059
0.0156569
0.0403112
0.0249007
0.0439325
0.0483816
0.0379428
0.041614
0.0401306
0.0364958
0.0264428
0.0472185
0.0170566
0.0148792
0.0436952
0.0211332
0.0170703
0.0451855
0.0368367
0.0373206
0.0223371
0.0420149
0.0215474
0.023896
0.0452394
0.0481946
0.0221321
0.0247822
0.0414507
0.0216773
0.0490752
0.0382975
0.015679
0.0414744
0.035059
0.0410776
0.0247526
0.0374718
0.0464561
0.0110887
0.0133126
0.0445376
0.025471
0.0382936
0.0443042
0.042906
0.0455053
0.036111
0.0376946
0.0206007
0.0430884
0.0419053
0.0408725
0.0452696
0.0408058
0.0372582
0.0213979
0.0165167
0.0367159
0.0468242
0.0385638
0.0322067
0.0313755
0.0234321
0.0212326
0.041175
0.0358193
0.0232971
0.0436536
0.022057
0.0171893
0.0348698
0.0381968
0.0398971
0.0370167
0.0222915
0.0219771
0.035604
0.0243711
0.0235519
0.023085
0.0336818
0.0330972
0.0378959
0.0402365
0.0365663
0.0168872
0.0138339
0.0408884
0.0325829
0.0404625
0.0212137
0.0201206
0.0401106
0.0429398
0.038013
0.0402816
0.0345878
0.0362101
0.0423918
0.0226362
0.0213374
0.0359998
0.0243103
0.0351083
0.0186186
0.0352946
0.0192757
0.0237913
0.0208391
0.038874
0.022296
0.039165
0.0235809
0.0349924
0.0342697
0.0178516
0.02157
0.0328505
0.0210674
0.0208113
0.0166032
0.0351797
0.015663
0.0344901
0.0168858
0.0282213
0.0378724
0.0321569
0.020291
0.0192507
0.0208812
0.0205769
0.0236727
0.0222508
0.019859
0.0155233
0.0324176
0.0336251
0.0366012
0.0340821
0.0186683
0.0132842
0.0188323
0.0278465
0.0324113
0.030519
0.0335281
0.0335326
0.0358912
0.0327147
0.0161422
0.0200825
0.0311601
0.0219653
0.0185705
0.014997
0.0172658
0.0271357
0.0290157
0.0101834
0.010587
0.00817957
0.00734067
0.0126383
0.0113048
0.0159748
0.0205445
0.0203796
0.0206636
0.0163134
0.0168752
0.0203123
0.0154914
0.0170928
0.0214787
0.019862
0.0175255
0.0196805
0.0165316
0.0193346
0.0182384
0.0202551
0.0120627
0.00806914
0.00882533
0.0175221
0.0131367
0.0146933
0.0196369
0.0187887
0.0263087
0.0535008
0.0307066
0.0327767
0.0318845
0.0218488
0.0133606
0.0440016
0.0397324
0.0425694
0.00824604
0.0275582
0.0474246
0.0383961
0.0269749
0.0188388
0.0203135
0.0538658
0.0442863
0.026114
0.00871204
0.0272002
0.0479164
0.0232079
0.0455546
0.0440228
0.0298454
0.0400975
0.0322527
0.0459018
0.0118466
0.0120343
0.0273108
0.0213533
0.0309377
0.0204103
0.0251869
0.0229842
0.0446295
0.0306879
0.0426013
0.0198688
0.0155368
0.0179021
0.0324299
0.0340549
0.0485853
0.0213854
0.0311898
0.0332251
0.0440132
0.0452618
0.0327869
0.0361011
0.0537771
0.0281828
0.0230919
0.0200124
0.016813
0.0296763
0.0215159
0.0303644
0.0247431
0.0211081
0.0227655
0.0130539
0.0121562
0.0425121
0.0350273
0.025491
0.0538402
0.0207201
0.0209647
0.0344133
0.0260191
0.0293468
0.0226488
0.0374707
0.0279177
0.0302165
0.0450941
0.0143994
0.0252905
0.0305163
0.0311733
0.0234839
0.0529796
0.0319544
0.0384568
0.014579
0.0326974
0.0530381
0.0316227
0.0251802
0.0199042
0.0462211
0.0409424
0.0532368
0.0229767
0.0260148
0.0154756
0.0419947
0.0529284
0.0245838
0.0529876
0.0442187
0.0196842
0.0452971
0.052935
0.0330991
0.0476787
0.0346985
0.0233916
0.0252045
0.0185896
0.0471701
0.0195282
0.0198705
0.0529945
)
;

boundaryField
{
    patch0
    {
        type            kqRWallFunction;
        value           nonuniform List<scalar> 
4010
(
0.0476292
0.0476292
0.0512843
0.0512843
0.0544778
0.0544778
0.0539606
0.0539606
0.0513512
0.0513512
0.0527014
0.0527014
0.0520457
0.0520457
0.0506692
0.0506692
0.0504848
0.0504848
0.054902
0.054902
0.05014
0.05014
0.0506537
0.0506537
0.0319338
0.0319338
0.0513078
0.0513078
0.0521095
0.0521095
0.0513754
0.0513754
0.0327011
0.0327011
0.0518877
0.0518877
0.0456119
0.0456119
0.0525162
0.0525162
0.0247534
0.0247534
0.0421337
0.0421337
0.0419122
0.0419122
0.0528657
0.0528657
0.0428038
0.0428038
0.0412932
0.0412932
0.0419446
0.0419446
0.0539772
0.0539772
0.0495156
0.0495156
0.0508577
0.0508577
0.0395613
0.0395613
0.0419929
0.0419929
0.0427708
0.0427708
0.0359901
0.0359901
0.0543853
0.0543853
0.0441614
0.0441614
0.0400282
0.0400282
0.0522447
0.0522447
0.0479582
0.0479582
0.0367328
0.0367328
0.0402132
0.0402132
0.02733
0.02733
0.0406084
0.0406084
0.0410197
0.0410197
0.0514096
0.0514096
0.0427974
0.0427974
0.0486142
0.0486142
0.0539324
0.0539324
0.022317
0.022317
0.0218871
0.0218871
0.0485871
0.0485871
0.0282546
0.0282546
0.0425688
0.0425688
0.0475618
0.0475618
0.0336937
0.0336937
0.0548304
0.0548304
0.0459365
0.0459365
0.0532748
0.0532748
0.0534773
0.0534773
0.0479246
0.0479246
0.0451388
0.0451388
0.0508551
0.0508551
0.044297
0.044297
0.0470028
0.0470028
0.0458881
0.0458881
0.0543565
0.0543565
0.0513582
0.0513582
0.0445072
0.0445072
0.0474084
0.0474084
0.0475664
0.0475664
0.023514
0.023514
0.0508467
0.0508467
0.0461069
0.0461069
0.0515925
0.0515925
0.0511975
0.0511975
0.0306253
0.0306253
0.0543353
0.0543353
0.0519283
0.0519283
0.0537182
0.0537182
0.0471704
0.0471704
0.0531808
0.0531808
0.0437736
0.0437736
0.0495629
0.0495629
0.0242197
0.0242197
0.0444828
0.0444828
0.0459153
0.0459153
0.0543346
0.0543346
0.0520587
0.0520587
0.0214018
0.0214018
0.0231355
0.0231355
0.0516376
0.0516376
0.0437246
0.0437246
0.0396823
0.0396823
0.0392153
0.0392153
0.0251996
0.0251996
0.0419633
0.0419633
0.0542366
0.0542366
0.0530023
0.0530023
0.0476251
0.0476251
0.0267303
0.0267303
0.0546025
0.0546025
0.0251885
0.0251885
0.0478712
0.0478712
0.0455256
0.0455256
0.0397545
0.0397545
0.0532791
0.0532791
0.0524737
0.0524737
0.0385414
0.0385414
0.048188
0.048188
0.0414664
0.0414664
0.0538024
0.0538024
0.0482461
0.0482461
0.0528854
0.0528854
0.0512885
0.0512885
0.0538468
0.0538468
0.0218351
0.0218351
0.0545974
0.0545974
0.0517169
0.0517169
0.0491343
0.0491343
0.0541696
0.0541696
0.0402599
0.0402599
0.0261687
0.0261687
0.0240541
0.0240541
0.0214824
0.0214824
0.0513674
0.0513674
0.041724
0.041724
0.0333889
0.0333889
0.0516547
0.0516547
0.0464317
0.0464317
0.03344
0.03344
0.0536055
0.0536055
0.0542766
0.0542766
0.029883
0.029883
0.0512086
0.0512086
0.0274537
0.0274537
0.0439612
0.0439612
0.0531052
0.0531052
0.0520397
0.0520397
0.0531506
0.0531506
0.0540771
0.0540771
0.0545542
0.0545542
0.0515299
0.0515299
0.0357392
0.0357392
0.0357392
0.0283521
0.0283521
0.0283521
0.053789
0.053789
0.0414452
0.0414452
0.0385335
0.0385335
0.0257804
0.0257804
0.0490195
0.0490195
0.0496919
0.0496919
0.0468904
0.0468904
0.0263737
0.0263737
0.0263737
0.0300485
0.0300485
0.0542075
0.0542075
0.052966
0.052966
0.0417648
0.0417648
0.0259603
0.0259603
0.0544681
0.0544681
0.0529122
0.0529122
0.041278
0.041278
0.0516153
0.0516153
0.0320524
0.0320524
0.0540423
0.0540423
0.0271065
0.0271065
0.0460928
0.0460928
0.0439406
0.0439406
0.0450432
0.0450432
0.025465
0.025465
0.0540479
0.0540479
0.0473344
0.0473344
0.0446081
0.0446081
0.0514156
0.0514156
0.0530036
0.0530036
0.0460348
0.0460348
0.0547324
0.0547324
0.0331482
0.0331482
0.0509605
0.0509605
0.0196058
0.0196058
0.0465201
0.0465201
0.0534229
0.0534229
0.0399364
0.0399364
0.0524918
0.0524918
0.0530937
0.0530937
0.0449281
0.0449281
0.0219397
0.0219397
0.0516104
0.0516104
0.030747
0.030747
0.0426298
0.0426298
0.0539121
0.0539121
0.052497
0.052497
0.0356645
0.0356645
0.0505996
0.0505996
0.0528401
0.0528401
0.0519835
0.0519835
0.0482723
0.0482723
0.0273571
0.0273571
0.0273571
0.0446744
0.0446744
0.0337923
0.0337923
0.0364224
0.0364224
0.0330394
0.0330394
0.0337004
0.0337004
0.052459
0.052459
0.0478628
0.0478628
0.0498517
0.0498517
0.0488575
0.0488575
0.0398208
0.0398208
0.0513751
0.0513751
0.028905
0.028905
0.0273494
0.0273494
0.0251076
0.0251076
0.0251076
0.0281615
0.0281615
0.0512294
0.0512294
0.0533563
0.0533563
0.0479951
0.0479951
0.0423425
0.0423425
0.0531098
0.0531098
0.0496138
0.0496138
0.0361724
0.0361724
0.0501524
0.0501524
0.051042
0.051042
0.039553
0.039553
0.0491468
0.0491468
0.0476654
0.0476654
0.0533138
0.0533138
0.0498307
0.0498307
0.0444794
0.0444794
0.0521698
0.0521698
0.0533733
0.0533733
0.0506143
0.0506143
0.0337905
0.0337905
0.0285122
0.0285122
0.0499303
0.0499303
0.0368209
0.0368209
0.0236543
0.0236543
0.0465705
0.0465705
0.0242448
0.0242448
0.0242448
0.0533875
0.0533875
0.0502041
0.0502041
0.051379
0.051379
0.0283945
0.0283945
0.0283945
0.0526636
0.0526636
0.0374272
0.0374272
0.0532987
0.0532987
0.0295839
0.0295839
0.0443472
0.0443472
0.0263503
0.0263503
0.0504207
0.0504207
0.0544687
0.0544687
0.0529556
0.0529556
0.053138
0.053138
0.0523316
0.0523316
0.0292774
0.0292774
0.0503104
0.0503104
0.0510215
0.0510215
0.0537901
0.0537901
0.0533097
0.0533097
0.0415463
0.0415463
0.0371848
0.0371848
0.0397033
0.0397033
0.0501056
0.0501056
0.0426194
0.0426194
0.0510508
0.0510508
0.046246
0.046246
0.0533449
0.0533449
0.0425361
0.0425361
0.0491694
0.0491694
0.0304996
0.0304996
0.0521639
0.0521639
0.0342392
0.0342392
0.035663
0.035663
0.0349092
0.0349092
0.0482864
0.0482864
0.0416245
0.0416245
0.0386062
0.0386062
0.0497619
0.0497619
0.0530955
0.0530955
0.0510766
0.0510766
0.0463979
0.0463979
0.0536189
0.0536189
0.0351362
0.0351362
0.034102
0.034102
0.0294656
0.0294656
0.0294656
0.0507942
0.0507942
0.0519395
0.0519395
0.0395725
0.0395725
0.0526612
0.0526612
0.0523583
0.0523583
0.0312553
0.0312553
0.0508585
0.0508585
0.037677
0.037677
0.0529978
0.0529978
0.0471245
0.0471245
0.0481324
0.0481324
0.0533378
0.0533378
0.0206597
0.0206597
0.0471427
0.0471427
0.0531319
0.0531319
0.0300563
0.0300563
0.0513177
0.0513177
0.0533179
0.0533179
0.0317756
0.0317756
0.0317756
0.0533686
0.0533686
0.0531869
0.0531869
0.0501301
0.0501301
0.0518919
0.0518919
0.040308
0.040308
0.0344516
0.0344516
0.0531128
0.0531128
0.0376696
0.0376696
0.0517723
0.0517723
0.0276414
0.0276414
0.0498729
0.0498729
0.0517059
0.0517059
0.0452613
0.0452613
0.0534422
0.0534422
0.0348855
0.0348855
0.0426343
0.0426343
0.0513633
0.0513633
0.0527912
0.0527912
0.0455054
0.0455054
0.0482799
0.0482799
0.0357441
0.0357441
0.0536406
0.0536406
0.0491288
0.0491288
0.0421229
0.0421229
0.053208
0.053208
0.0398322
0.0398322
0.0388959
0.0388959
0.05416
0.05416
0.0521011
0.0521011
0.0356723
0.0356723
0.0510678
0.0510678
0.0464859
0.0464859
0.0523998
0.0523998
0.0492388
0.0492388
0.0479306
0.0479306
0.0489973
0.0489973
0.052913
0.052913
0.0521892
0.0521892
0.0536844
0.0536844
0.0531397
0.0531397
0.050276
0.050276
0.0442472
0.0442472
0.0309221
0.0309221
0.0530418
0.0530418
0.0508804
0.0508804
0.0304688
0.0304688
0.0511738
0.0511738
0.0498031
0.0498031
0.0403744
0.0403744
0.0416308
0.0416308
0.0436133
0.0436133
0.0363342
0.0363342
0.0531133
0.0531133
0.0281389
0.0281389
0.0524905
0.0524905
0.0232306
0.0232306
0.05156
0.05156
0.0386874
0.0386874
0.0370429
0.0370429
0.0491718
0.0491718
0.0531975
0.0531975
0.0531186
0.0531186
0.049732
0.049732
0.0426418
0.0426418
0.0524737
0.0524737
0.0455164
0.0455164
0.0378586
0.0378586
0.0520908
0.0520908
0.0529798
0.0529798
0.0529917
0.0529917
0.0452983
0.0452983
0.0393725
0.0393725
0.0525913
0.0525913
0.0436878
0.0436878
0.0161382
0.0161382
0.0531078
0.0531078
0.0528215
0.0528215
0.0439803
0.0439803
0.0510752
0.0510752
0.0510363
0.0510363
0.0519002
0.0519002
0.0398174
0.0398174
0.0478637
0.0478637
0.0359569
0.0359569
0.0529843
0.0529843
0.0482415
0.0482415
0.0501794
0.0501794
0.0425617
0.0425617
0.0526622
0.0526622
0.0349444
0.0349444
0.0470662
0.0470662
0.0421739
0.0421739
0.0508802
0.0508802
0.0523039
0.0523039
0.0247669
0.0247669
0.0247669
0.042125
0.042125
0.0447239
0.0447239
0.0524737
0.0524737
0.0515601
0.0515601
0.0431812
0.0431812
0.0499055
0.0499055
0.0331701
0.0331701
0.0358703
0.0358703
0.0225217
0.0225217
0.0225217
0.0491898
0.0491898
0.0529701
0.0529701
0.0509089
0.0509089
0.0394994
0.0394994
0.042386
0.042386
0.0489092
0.0489092
0.0478355
0.0478355
0.0520764
0.0520764
0.0511784
0.0511784
0.0522271
0.0522271
0.0502552
0.0502552
0.0529898
0.0529898
0.0529076
0.0529076
0.0475672
0.0475672
0.0537154
0.0537154
0.0529697
0.0529697
0.0387922
0.0387922
0.0530063
0.0530063
0.0296159
0.0296159
0.0436413
0.0436413
0.0528531
0.0528531
0.0534071
0.0534071
0.0442296
0.0442296
0.0462763
0.0462763
0.046253
0.046253
0.0495496
0.0495496
0.05297
0.05297
0.0473644
0.0473644
0.0491065
0.0491065
0.0524629
0.0524629
0.0449452
0.0449452
0.0528877
0.0528877
0.0367108
0.0367108
0.0514539
0.0514539
0.0444508
0.0444508
0.0366497
0.0366497
0.043301
0.043301
0.047512
0.047512
0.0443496
0.0443496
0.0511121
0.0511121
0.0294437
0.0294437
0.0294437
0.0497074
0.0497074
0.0485339
0.0485339
0.0420478
0.0420478
0.0502269
0.0502269
0.0527133
0.0527133
0.0472007
0.0472007
0.0494974
0.0494974
0.0525864
0.0525864
0.0430612
0.0430612
0.0442693
0.0442693
0.0528243
0.0528243
0.052962
0.052962
0.0494711
0.0494711
0.0515001
0.0515001
0.0524976
0.0524976
0.0457911
0.0457911
0.0385825
0.0385825
0.0497148
0.0497148
0.0341409
0.0341409
0.0504906
0.0504906
0.0509614
0.0509614
0.0521834
0.0521834
0.0508737
0.0508737
0.0525086
0.0525086
0.0435504
0.0435504
0.0485045
0.0485045
0.0455593
0.0455593
0.0528569
0.0528569
0.0413411
0.0413411
0.0521431
0.0521431
0.0418444
0.0418444
0.0516256
0.0516256
0.0512572
0.0512572
0.0522476
0.0522476
0.0493668
0.0493668
0.0520076
0.0520076
0.0495322
0.0495322
0.0511084
0.0511084
0.0466658
0.0466658
0.0442825
0.0442825
0.0456462
0.0456462
0.0522934
0.0522934
0.0480771
0.0480771
0.0530114
0.0530114
0.03728
0.03728
0.0474589
0.0474589
0.049033
0.049033
0.0528052
0.0528052
0.0526149
0.0526149
0.0527819
0.0527819
0.0516039
0.0516039
0.0499097
0.0499097
0.0448471
0.0448471
0.0487978
0.0487978
0.0526854
0.0526854
0.0528568
0.0528568
0.0382651
0.0382651
0.0455268
0.0455268
0.0325925
0.0325925