/*--------------------------------*- C++ -*----------------------------------*\
  =========                 |
  \\      /  F ield         | OpenFOAM: The Open Source CFD Toolbox
   \\    /   O peration     | Website:  https://openfoam.org
    \\  /    A nd           | Version:  8
     \\/     M anipulation  |
\*---------------------------------------------------------------------------*/
FoamFile
{
    version     2.0;
    format      ascii;
    class       volScalarField;
    location    "0.35";
    object      nut;
}
// * * * * * * * * * * * * * * * * * * * * * * * * * * * * * * * * * * * * * //

dimensions      [0 2 -1 0 0 0 0];

internalField   nonuniform List<scalar> 
1924
(
0.00242191
0.0025153
0.00259899
0.00258531
0.00251979
0.00255626
0.00254197
0.00251661
0.00251671
0.00261104
0.00251563
0.00253029
0.00198178
0.00254834
0.00255325
0.00253126
0.0020058
0.00255923
0.00237065
0.00257162
0.00174763
0.00228204
0.00227145
0.00257653
0.00230271
0.00227218
0.002293
0.00258797
0.00247604
0.00251172
0.00220257
0.00228119
0.00229261
0.00210235
0.00259836
0.00232963
0.00223233
0.00254428
0.00244004
0.00212395
0.00223989
0.00183356
0.00225033
0.00224871
0.00252754
0.00230146
0.00244744
0.00258776
0.00166182
0.00164483
0.00245711
0.00186542
0.00229344
0.00243081
0.00204832
0.00260978
0.002375
0.00257193
0.00257791
0.00244641
0.00235902
0.00252712
0.00233847
0.00241128
0.00238858
0.00259837
0.00254415
0.00233895
0.00242568
0.00242736
0.00170456
0.00252594
0.00238606
0.00253123
0.00252087
0.00193238
0.00259819
0.00253952
0.00258309
0.00241467
0.00257372
0.00234633
0.00248211
0.00172836
0.00233778
0.00237734
0.00259761
0.00255523
0.00162665
0.00169276
0.00255071
0.00234038
0.00222464
0.00221719
0.00176527
0.00228295
0.002596
0.00257216
0.00244365
0.00180813
0.00260441
0.00176393
0.00245417
0.00239037
0.00223366
0.00257302
0.0025603
0.00219262
0.0024467
0.00228206
0.00258618
0.00245031
0.00255797
0.00252528
0.00258676
0.00164174
0.00260261
0.00253775
0.00246995
0.00259451
0.00222377
0.000687585
0.00172245
0.00162937
0.00254209
0.00229107
0.00201919
0.00253286
0.00241068
0.000718634
0.00258195
0.00259888
0.000220895
0.00252299
0.00183939
0.00235873
0.00256701
0.00254208
0.00258179
0.00258995
0.00260314
0.00254489
0.000193773
0.000169544
0.00258102
0.00226634
0.00219529
0.00178372
0.00246494
0.00248437
0.00241163
0.000345123
0.00192698
0.00259687
0.00256187
0.00228884
0.000684871
0.00260055
0.00256669
0.000263272
0.00253364
0.00197965
0.00258829
0.000699811
0.00239039
0.00235614
0.0023833
0.000514161
0.00259187
0.00244649
0.0023449
0.00252403
0.00256597
0.00239961
0.00260756
0.00203062
0.00251544
0.000359296
0.00239358
0.00256989
0.00223577
0.00255829
0.00256893
0.00237806
0.00164798
0.00253
0.00195091
0.00231475
0.00258889
0.00255515
0.0021131
0.00251099
0.00256658
0.00253689
0.002468
0.000351516
0.00236949
0.00205001
0.00213173
0.00202499
0.000443917
0.00254879
0.002461
0.00250212
0.00245703
0.0022334
0.00252199
0.00189301
0.00183937
0.000153725
0.000713357
0.00253599
0.00258543
0.00245972
0.00230613
0.00256877
0.00248065
0.00211962
0.00250348
0.00251714
0.00221769
0.00247131
0.00245434
0.00258385
0.00250847
0.00236211
0.00255383
0.00257561
0.00252293
0.00204845
0.000304109
0.00250768
0.00214286
0.000345501
0.002417
0.000155714
0.00258435
0.00250887
0.00254433
0.000358149
0.00256331
0.00216408
0.0025824
0.00191544
0.000384288
0.00180647
0.0025283
0.0026012
0.00256528
0.00256922
0.00255091
0.000622858
0.00251555
0.00253156
0.00258625
0.00258236
0.00227742
0.00215277
0.00222096
0.0025171
0.00230742
0.00253637
0.00240026
0.00257482
0.0022979
0.00246966
0.00193813
0.00254494
0.00206022
0.000460204
0.00207789
0.00244691
0.00226332
0.00219758
0.00250163
0.00257148
0.00254427
0.00241141
0.00258737
0.00209179
0.000514254
0.000259924
0.00252927
0.00255073
0.00220347
0.00255849
0.00256013
0.000627724
0.00253754
0.00217094
0.00257404
0.00241472
0.00245659
0.00258205
0.00159487
0.0024186
0.00257693
0.00192748
0.0025237
0.00258159
0.000362952
0.00258332
0.00257832
0.00249536
0.00256153
0.00224773
0.0020592
0.00257665
0.00216676
0.00253607
0.00184951
0.00248989
0.00254681
0.0023675
0.00257872
0.00207341
0.0023083
0.00255146
0.00256991
0.00239084
0.00244592
0.00210334
0.00258052
0.00247072
0.00229936
0.00257222
0.00223746
0.00220495
0.00259272
0.0025569
0.00210799
0.00253552
0.00240199
0.00257077
0.00247191
0.00245153
0.00247649
0.00256567
0.0025548
0.00258274
0.00256975
0.00249949
0.00234207
0.0019553
0.00257366
0.00252155
0.000293514
0.00253603
0.00248867
0.00224847
0.00227469
0.000358838
0.000488105
0.00257577
0.00186362
0.0025532
0.00169479
0.00255604
0.00219064
0.00214504
0.00248461
0.00257818
0.00257569
0.00249768
0.00229972
0.00254894
0.00237744
0.00215921
0.00255427
0.00256831
0.00257197
0.00238559
0.00221335
0.00256296
0.00233387
0.000325498
0.00257603
0.00256715
0.00233673
0.00253
0.00252188
0.00253803
0.00223489
0.00245587
0.00211264
0.00257159
0.00244631
0.00250844
0.0023052
0.00255434
0.000419527
0.00241819
0.00230094
0.00252759
0.00254834
0.000128675
0.00228932
0.00235688
0.0025648
0.00253529
0.00231379
0.00248856
0.00202106
0.00211121
0.000164537
0.00247673
0.00256979
0.00252611
0.0022145
0.00229522
0.00247869
0.00243792
0.00256662
0.00252095
0.00255589
0.00249932
0.00256763
0.00257073
0.00242519
0.0025828
0.00257192
0.0021863
0.00256984
0.00191175
0.00232637
0.00256815
0.00257852
0.00231572
0.0023978
0.00239642
0.00248538
0.00256622
0.00242518
0.00246876
0.00255317
0.00236492
0.00256871
0.00212355
0.00252753
0.00234924
0.00213352
0.00232014
0.00244562
0.00234655
0.00252692
0.000141882
0.00250128
0.00245398
0.00229612
0.00250549
0.00256399
0.00242227
0.00249634
0.0025681
0.00231339
0.00235471
0.00256622
0.00257243
0.00247858
0.00252909
0.00255364
0.00238484
0.00218552
0.00248539
0.00205058
0.00251129
0.00252306
0.00255679
0.00252909
0.00255455
0.0023237
0.00245315
0.0023753
0.00256653
0.00225207
0.00254413
0.00225622
0.00255544
0.00252788
0.00255067
0.00249236
0.00254403
0.00247973
0.00252421
0.00240727
0.00234342
0.0023798
0.00255715
0.00244119
0.00257078
0.00214256
0.00242539
0.00246697
0.00256165
0.00256234
0.0025633
0.00253399
0.00249094
0.00235962
0.00246275
0.00256381
0.00256961
0.00217439
0.00237626
0.00200131
0.00250392
0.00256649
0.00233871
0.00243999
0.00256097
0.00250368
0.00256201
0.00249989
0.00248675
0.00251304
0.00251812
0.00239732
0.00235063
0.002532
0.00254778
0.0024843
0.00256488
0.00255031
0.0025619
0.00251791
0.00240119
0.00236465
0.00242898
0.00234834
0.00255682
0.00248818
0.00256352
0.00245611
0.00243084
0.00212435
0.00252855
0.002549
0.0022765
0.0021942
0.00237648
0.00243048
0.00245849
0.00246559
0.00247811
0.00255826
0.00244324
0.00234613
0.0023731
0.00253196
0.00257111
0.00242738
0.00249163
0.00255913
0.00247783
0.00238102
0.00245214
0.00243652
0.00246848
0.00244002
0.00216035
0.00239291
0.0024866
0.00210009
0.00249971
0.00219943
0.00238815
0.00254355
0.00255258
0.00236004
0.00244874
0.00255753
0.00246851
0.00237309
0.00250862
0.00238584
0.00252544
0.00245267
0.00203489
0.00255432
0.00246541
0.00242396
0.00254722
0.00254339
0.00251618
0.00239818
0.00246485
0.00255761
0.00248456
0.0025458
0.002494
0.0023829
0.00248294
0.000510882
0.00243
0.0024741
0.00255605
0.00253081
0.0025834
0.00253351
0.00248775
0.00212905
0.0025562
0.00255709
0.00227178
0.00247086
0.00254875
0.00239548
0.00250845
0.0023254
0.00247266
0.00239679
0.00256598
0.00246199
0.00257313
0.00244382
0.00253683
0.00251149
0.00215476
0.00227802
0.00238932
0.00255233
0.00254011
0.00253597
0.00242365
0.00254454
0.00233186
0.00247791
0.00254589
0.002435
0.00247667
0.00255763
0.00243955
0.00258068
0.00248695
0.00247831
0.00220173
0.00242399
0.00238186
0.00247375
0.0025524
0.00250142
0.00250917
0.00246653
0.00240013
0.00250328
0.00255917
0.00244265
0.00254754
0.00248042
0.00225876
0.00248349
0.00251566
0.00260533
0.00253243
0.00247826
0.00252304
0.00248249
0.00248988
0.00240843
0.00248025
0.0024392
0.00248569
0.00233757
0.00254113
0.00252785
0.00222875
0.00242996
0.00255404
0.00248281
0.00247521
0.0024643
0.00250666
0.00228808
0.00256986
0.00255761
0.00253635
0.0025379
0.00256027
0.00247167
0.00248679
0.00254911
0.00254761
0.00254474
0.00253892
0.00244381
0.00254828
0.00253391
0.00226344
0.00254544
0.00248737
0.0024982
0.002556
0.00253956
0.00243875
0.0024799
0.00254995
0.00248769
0.00240808
0.00247407
0.00246547
0.00250269
0.0024772
0.00246401
0.00211207
0.00240786
0.00247782
0.00250766
0.00242841
0.00254649
0.00248129
0.00248066
0.00247847
0.00251198
0.0022805
0.00244103
0.00242805
0.00251942
0.00247707
0.0025487
0.00208525
0.00236784
0.00255386
0.00249194
0.00249175
0.00255757
0.00030055
0.000149899
0.00223563
0.00223683
0.00253606
0.00252236
0.00249031
0.00236537
0.00247501
0.00254257
0.00244953
0.002537
0.00249395
0.00254852
0.00247322
0.00243049
0.00252807
0.00248921
0.000349302
0.00253715
0.000463023
0.00248035
0.00249212
0.00248039
0.00253255
0.00246811
0.00250163
0.00254356
0.00225036
0.00234897
0.00252711
0.00225975
0.00229654
0.00230149
0.00255134
0.00223951
0.00252987
0.00253655
0.00249936
0.00247714
0.0024924
0.00245651
0.0024805
0.0024882
0.00247408
0.00255447
0.00246077
0.00243522
0.00251231
0.00214
0.00253857
0.00248008
0.00245938
0.00248986
0.0025067
0.00246882
0.00241701
0.00254458
0.00211704
0.00258372
0.00217024
0.00255496
0.00249171
0.00253978
0.00243433
0.00249168
0.00246414
0.00254116
0.00251418
0.00248179
0.0024862
0.00253954
0.00233404
0.0024968
0.00246799
0.00228968
0.0022627
0.00247301
0.00207466
0.00241513
0.00254883
0.00221297
0.00255254
0.00251957
0.00248055
0.00219883
0.00253037
0.00243195
0.000388044
0.00247036
0.00249057
0.00254323
0.00246548
0.00248006
0.00245268
0.00245387
0.00253929
0.00253989
0.0024729
0.00253187
0.00252836
0.00248156
0.00253866
0.00252034
0.00249011
0.0025509
0.00240849
0.00247183
0.00248073
0.00248343
0.00247391
0.00238524
0.00253995
0.00249705
0.00014321
0.00254907
0.000437257
0.00248852
0.00247969
0.00176165
0.0024526
0.0024948
0.00248286
0.00254344
0.00245845
0.00253624
0.00252312
0.00248126
0.00238948
0.00254941
0.00250604
0.00244558
0.00247297
0.00239752
0.00222652
0.00253928
0.00253853
0.00250732
0.00222237
0.00244726
0.00251059
0.0024202
0.00248339
0.00248272
0.00248637
0.00248499
0.00246175
0.00243752
0.00254749
0.00247431
0.00221942
0.00238475
0.00246112
0.000403664
0.00250099
0.00206265
0.00246391
0.00254143
0.00213945
0.00249681
0.00248483
0.0025112
0.00256018
0.00252303
0.00253234
0.00247527
0.00240384
0.000471749
0.00252658
0.00253058
0.00253164
0.00252448
0.00254111
0.00243869
0.00254448
0.00248105
0.00211261
0.00246539
0.00222419
0.00248784
0.00248369
0.00253154
0.00245375
0.00249488
0.00252993
0.00249056
0.00210081
0.00252286
0.000175405
0.00228517
0.00251362
0.00246145
0.0024871
0.00246681
0.00224074
0.00216649
0.00254315
0.002476
0.00231851
0.00249499
0.00247953
0.00237816
0.00253328
0.0025365
0.00249813
0.00246778
0.00253927
0.00248546
0.00242566
0.00250367
0.00220504
0.00252759
0.00243219
0.00250008
0.00251349
0.00223997
0.000272351
0.00248501
0.00240803
0.00046125
0.00250216
0.00246855
0.00250398
0.00246854
0.00253635
0.002409
0.00248319
0.000217886
0.00243714
0.00252702
0.00022423
0.00242964
0.000139539
0.00246921
0.00252632
0.00241476
0.00240526
0.00244107
0.00258159
0.0023821
0.00250539
0.00252847
0.00247537
0.00249139
0.0024055
0.00222605
0.00244424
0.00218215
0.00248995
0.00253503
0.00199088
0.00249157
0.00249474
0.00252086
0.00202707
0.00253461
0.0024953
0.00239983
0.00244695
0.00248458
0.00251286
0.00246794
0.00218818
0.00204504
0.00241221
0.00234019
0.00250533
0.00237701
0.00244829
0.00241799
0.00219079
0.00240304
0.00252542
0.00252414
0.00246433
0.00248162
0.00243794
0.00239148
0.00252397
0.0024225
0.00224825
0.00252971
0.00256741
0.0025171
0.00221506
0.00244869
0.0024452
0.00252332
0.00249772
0.00251606
0.00249274
0.00249773
0.00249681
0.00242597
0.00247268
0.00252072
0.00251373
0.00252214
0.00021968
0.0021848
0.00221157
0.00249859
0.00242879
0.00250498
0.0025481
0.00246084
0.00231323
0.002382
0.00248373
0.0025196
0.00220561
0.00226885
0.00243049
0.00257423
0.00240835
0.0024653
0.00238778
0.00252786
0.00257454
0.00251184
0.00252078
0.00248127
0.00240991
0.00248731
0.00248756
0.00249843
0.00243144
0.00252015
0.00244934
0.00244681
0.00257626
0.00257955
0.00247887
0.00251802
0.00250422
0.00235563
0.00249013
0.00237008
0.00236369
0.0019758
0.0024481
0.00216786
0.00252189
0.00246794
0.00238404
0.00236344
0.00251807
0.00238694
0.00243009
0.0023709
0.00248986
0.00249805
0.000458689
0.00250354
0.00237716
0.00246165
0.000493978
0.00249229
0.00238248
0.00202079
0.00236779
0.00234665
0.00220922
0.00249139
0.00251538
0.0024841
0.00238522
0.0025065
0.000444807
0.000516063
0.00244174
0.00249208
0.00251967
0.00257797
0.00249735
0.00241638
0.00232362
0.00238607
0.00232153
0.00044625
0.00247542
0.00196728
0.00230947
0.00248115
0.00250886
0.00247431
0.00242167
0.00250447
0.000155389
0.000167639
0.00257632
0.00241355
0.00242641
0.00250742
0.00233103
0.00246252
0.00248124
0.00235267
0.00249843
0.00250715
0.00248822
0.00203176
0.00249174
0.00233723
0.000436219
0.00215794
0.00250011
0.0024986
0.00251072
0.00234233
0.00231531
0.00245704
0.00248059
0.00241547
0.00224928
0.00234562
0.00249443
0.000194895
0.00218431
0.00229465
0.00238326
0.000450725
0.00243479
0.00234767
0.000501358
0.000361761
0.00249101
0.00239072
0.00250765
0.00250181
0.00251077
0.00251033
0.00241911
0.00249257
0.00240763
0.00248583
0.00248408
0.00021172
0.000449928
0.00242121
0.000353617
0.00233977
0.00248569
0.00222483
0.00234639
0.00250824
0.00230368
0.00227348
0.00236169
0.00257408
0.00250523
0.00248568
0.00202342
0.00255979
0.00250137
0.00249584
0.00225851
0.00249096
0.00228573
0.0024786
0.00220639
0.000454917
0.00237532
0.00246975
0.00245658
0.00044494
0.0022178
0.00246831
0.00196125
0.000422292
0.0024621
0.00219188
0.00245184
0.00222855
0.00227305
0.00248997
0.0025019
0.00248493
0.00219505
0.00248664
0.00223844
0.00242749
0.00224765
0.00216514
0.00246801
0.00224384
0.00250151
0.0023836
0.0024863
0.0019574
0.00235577
0.00245377
0.0023425
0.00248032
0.000146379
0.00013383
0.00247504
0.00241486
0.00224659
0.002412
0.00249814
0.00238406
0.00223849
0.00196807
0.000437242
0.00247427
0.00236525
0.00247571
0.0024951
0.00245527
0.0024597
0.00244594
0.00218723
0.00248402
0.00211849
0.00250488
0.00247717
0.00248084
0.00222415
0.0021593
0.00248125
0.00224136
0.00247943
0.00212857
0.000210107
0.00247879
0.00213757
0.00246826
0.00214546
0.00247146
0.000425144
0.00241794
0.00214182
0.00058558
0.00247877
0.00247512
0.00215093
0.000208645
0.00216862
0.00233531
0.00223473
0.00213649
0.00215568
0.00210908
0.00249431
0.00245049
0.0023953
0.00230588
0.00211911
0.00224302
0.00242012
0.00247569
0.0024459
0.00215342
0.00232292
0.00220194
0.00246692
0.00238666
0.000450871
0.00246682
0.000432949
0.00246215
0.00244281
0.00247505
0.00240802
0.00240712
0.00215827
0.00246344
0.0021726
0.00247812
0.002207
0.00237764
0.00243387
0.0024706
0.00223035
0.000240993
0.00246424
0.0023545
0.0021522
0.00249224
0.00240796
0.00218699
0.00245894
0.000216025
0.00210384
0.00236599
0.00258347
0.000211841
0.0022989
0.00232615
0.00246351
0.00257713
0.00209649
0.00238706
0.00247221
0.000358504
0.002363
0.00240688
0.00238787
0.00215437
0.00247245
0.000252883
0.00236965
0.00246774
0.00204253
0.00246185
0.00248758
0.00206063
0.00247208
0.00246964
0.00231974
0.00241549
0.00232864
0.00246998
0.000208927
0.000216615
0.00233536
0.00207924
0.00225017
0.00020454
0.00246895
0.00238677
0.000450566
0.00245369
0.00221535
0.00235004
0.002494
0.000389965
0.0002171
0.00225314
0.00235089
0.00043788
0.000164668
0.000157232
0.00218771
0.00220889
0.00220728
0.00212679
0.0024123
0.00242929
0.00243875
0.00240408
0.00241891
0.00246606
0.000190753
0.0024635
0.000210097
0.000230032
0.00246321
0.00233358
0.00209899
0.000215932
0.00244424
0.00202143
0.00240057
0.000435513
0.00206077
0.000440336
0.00245649
0.000446421
0.00220836
0.00198209
0.000445764
0.00248192
0.000471255
0.00238367
0.0023438
0.000410253
0.000451799
0.00225484
0.00045848
0.00239536
0.000398047
0.000462731
0.0021444
0.00197723
0.00220954
0.00221196
0.000320889
0.000212713
0.000462849
0.0024587
0.00225134
0.00244802
0.0024561
0.00221948
0.0023163
0.0021929
0.00245084
0.00237353
0.00246194
0.000434324
0.0022087
0.001926
0.00240008
0.0024066
0.00246387
0.00225782
0.0019749
0.000200191
0.00208054
0.000458525
0.00249054
0.00247767
0.00245921
0.00219898
0.00237908
0.001991
0.00225417
0.00244201
0.000209534
0.00238917
0.00233264
0.00199227
0.000440336
0.00225659
0.00220723
0.00217224
0.00231337
0.00244466
0.000427989
0.00245143
0.00240425
0.000424338
0.00239532
0.00247619
0.000430561
0.00218446
0.00244611
0.00240196
0.000450534
0.00216035
0.00243748
0.0023912
0.00042138
0.00245257
0.00213136
0.00217744
0.00243549
0.000195389
0.00244913
0.00220436
0.00243117
0.00245788
0.00245053
0.00213834
0.00210252
0.00241426
0.00198111
0.0024497
0.00193869
0.00237351
0.000222389
0.000450035
0.000450299
0.000209706
0.00233283
0.000459799
0.00243745
0.00225163
0.0019774
0.000441058
0.000195639
0.00215888
0.00243733
0.00244794
0.00247516
0.00208176
0.00237472
0.00238898
0.000418368
0.0023899
0.00207807
0.00242736
0.00242891
0.00220265
0.00243732
0.0023059
0.00212812
0.00226382
0.000441145
0.00242803
0.00242246
0.00226281
0.00239544
0.00191541
0.000189943
0.00214841
0.000401486
0.000190761
0.00238366
0.00019125
0.00241851
0.0023131
0.000190987
0.00236714
0.000450678
0.000189718
0.00241138
0.00225183
0.00041439
0.000187664
0.000187545
0.00238116
0.00239865
0.00240432
0.00229112
0.00218321
0.00241373
0.00211207
0.00238258
0.000172649
0.000189247
0.00018845
0.0023221
0.00224784
0.00237606
0.000436913
0.00240935
0.000443286
0.000445459
0.00238498
0.00236572
0.000441309
0.000406755
0.00215753
0.00186671
0.000190106
0.000431732
0.00235993
0.00019076
0.00220708
0.00238246
0.0023495
0.00234884
0.00237005
0.000189754
0.000187571
0.00219636
0.00235156
0.000185436
0.00238434
0.00043294
0.00237988
0.00211771
0.000212026
0.000208076
0.000216399
0.000450381
0.00214504
0.00221542
0.00239875
0.00232612
0.00234107
0.00246334
0.00218684
0.00231071
0.00244489
0.00236844
0.00018304
0.00242982
0.00222799
0.00229334
0.000372202
0.00241848
0.000191583
0.00243542
0.00239472
0.000187818
0.000390627
0.00235881
0.00235495
0.00232085
0.00222067
0.000215531
0.00223017
0.000200808
0.000433367
0.000447641
0.00230161
0.0023827
0.00229388
0.00229823
0.00241682
0.00220613
0.000426673
0.00228017
0.000204556
0.000213738
0.00221394
0.000179961
0.00224304
0.000457769
0.00233429
0.00245116
0.00216791
0.00226889
0.00223727
0.00212452
0.00180746
0.00241932
0.000192392
0.000175438
0.00232734
0.000211786
0.000185026
0.00236445
0.0021427
0.00215807
0.000217632
0.00228063
0.000214434
0.000449414
0.00236642
0.0024458
0.000216379
0.000456248
0.0022663
0.000214311
0.00246941
0.00218084
0.000180539
0.00226725
0.00208463
0.00225745
0.000456867
0.00215364
0.0023989
0.00015148
0.00016588
0.00234693
0.00177375
0.00218874
0.00234068
0.00230598
0.00237451
0.00211979
0.00216993
0.000208981
0.00230959
0.00227494
0.00224941
0.00236747
0.0022472
0.00215058
0.000422068
0.000185212
0.00213336
0.00240908
0.00218581
0.00199586
0.00197122
0.000443589
0.000212828
0.00225423
0.00210258
0.000441874
0.00232281
0.000426572
0.000192237
0.00208094
0.00217432
0.00222166
0.00213934
0.000217042
0.000215348
0.00210348
0.000451975
0.000445128
0.000439405
0.00204109
0.00202327
0.00216488
0.00222797
0.00212522
0.000374596
0.000169412
0.00224731
0.00200908
0.00223673
0.000422216
0.000206281
0.00222479
0.00230399
0.00217995
0.00223058
0.00206984
0.00211556
0.00228847
0.000434669
0.000212033
0.00210787
0.000453376
0.00208668
0.000199191
0.00209062
0.000202717
0.000448105
0.000210822
0.00218967
0.000217273
0.00219788
0.000444076
0.00207774
0.00205864
0.000194958
0.000423935
0.00201324
0.000417568
0.000415032
0.000187788
0.0020823
0.000177136
0.00206113
0.000189444
0.00186688
0.00216096
0.00199305
0.000206605
0.00020128
0.000418362
0.000414872
0.000446642
0.000430918
0.000205779
0.000181354
0.00199961
0.00203493
0.00212482
0.00205322
0.000198019
0.000167292
0.0003959
0.00185325
0.00199778
0.0019386
0.00203518
0.0020346
0.00210347
0.00200936
0.000184017
0.000409041
0.00196046
0.000215963
0.000393101
0.00017716
0.000378705
0.00182897
0.00189094
0.00014494
0.000295798
0.00013004
0.000122998
0.000323874
0.000153279
0.000183884
0.000412127
0.00020847
0.000413433
0.000185975
0.000189544
0.000409717
0.000180948
0.000191141
0.000421195
0.000407059
0.000191682
0.000203747
0.000186095
0.000401393
0.000195628
0.000411303
0.000158678
0.00012949
0.000136242
0.000380717
0.000166325
0.000176085
0.000402855
0.000198678
0.00180054
0.00257899
0.00194551
0.00201056
0.00198265
0.000419859
0.000163522
0.00233582
0.00220694
0.00229929
0.000129607
0.00184536
0.0024264
0.00218327
0.00182568
0.000391217
0.000382033
0.00258744
0.00234496
0.000207988
0.000131935
0.000212258
0.00243939
0.0016941
0.00237746
0.00232898
0.000222265
0.00222132
0.0019988
0.00238682
0.000126023
0.000127136
0.00021241
0.000187668
0.000242006
0.000183444
0.000203922
0.000194753
0.00235281
0.000451138
0.00229938
0.000164702
0.000146402
0.000157481
0.00046357
0.00204912
0.00245606
0.000182919
0.000156975
0.000162094
0.00233673
0.00236972
0.000354046
0.00210907
0.00258539
0.00187277
0.00169002
0.000389305
0.000172416
0.000548315
0.000376771
0.000570336
0.000404238
0.000373182
0.000387647
0.000125516
0.000121141
0.00229546
0.00207869
0.00176976
0.00258696
0.00021686
0.000340432
0.000355646
0.00178088
0.00190016
0.000364366
0.00214518
0.00184406
0.00192851
0.00236489
0.000159661
0.00176604
0.00193784
0.00196019
0.000392153
0.0025718
0.00198451
0.00217384
0.000153754
0.00199832
0.00257632
0.00196496
0.000301771
0.000179149
0.00239458
0.0022411
0.00258212
0.00168568
0.00179002
0.000147492
0.00227021
0.00257158
0.00174098
0.00257252
0.00232896
0.000362641
0.00236096
0.00257325
0.00201688
0.00243152
0.00206689
0.00170977
0.00177292
0.000119343
0.0024159
0.000318936
0.000154515
0.00257657
)
;

boundaryField
{
    patch0
    {
        type            nutkWallFunction;
        Cmu             0.09;
        kappa           0.41;
        E               9.8;
        value           nonuniform List<scalar> 
4010
(
0.00028097
0.00028097
0.000290807
0.000290807
0.000299023
0.000299023
0.000297709
0.000297709
0.000290976
0.000290976
0.00028666
0.00028666
0.000272473
0.000272473
0.000264223
0.000264223
0.000263853
0.000263853
0.000300097
0.000300097
0.000265122
0.000265122
0.00028172
0.00028172
0.000185406
0.000185406
0.000290801
0.000290801
0.000292179
0.000292179
0.000281748
0.000281748
0.000187567
0.000187567
0.000292339
0.000292339
0.00027218
0.00027218
0.000293973
0.000293973
0.000164864
0.000164864
0.000251365
0.000251365
0.000264826
0.000264826
0.000294881
0.000294881
0.00026504
0.00026504
0.000208614
0.000208614
0.000210372
0.000210372
0.000297766
0.000297766
0.000286067
0.000286067
0.000289687
0.000289687
0.00025749
0.00025749
0.000211807
0.000211807
0.000213851
0.000213851
0.000197511
0.000197511
0.00029878
0.00029878
0.000271359
0.000271359
0.000205583
0.000205583
0.000293239
0.000293239
0.000281927
0.000281927
0.000223278
0.000223278
0.000206002
0.000206002
0.000172558
0.000172558
0.000207506
0.000207506
0.000262136
0.000262136
0.000291136
0.000291136
0.000213354
0.000213354
0.0002837
0.0002837
0.000297652
0.000297652
0.000157259
0.000157259
0.000155871
0.000155871
0.000283632
0.000283632
0.00017512
0.00017512
0.000265901
0.000265901
0.000280846
0.000280846
0.000190106
0.000190106
0.00029993
0.00029993
0.000221365
0.000221365
0.000295776
0.000295776
0.000296317
0.000296317
0.000267601
0.000267601
0.000274126
0.000274126
0.000289251
0.000289251
0.000271601
0.000271601
0.000222302
0.000222302
0.000276227
0.000276227
0.000298732
0.000298732
0.000289343
0.000289343
0.000272314
0.000272314
0.000277685
0.000277685
0.000280859
0.000280859
0.000161064
0.000161064
0.000289043
0.000289043
0.000276836
0.000276836
0.000291614
0.000291614
0.00029058
0.00029058
0.000224031
0.000224031
0.000298678
0.000298678
0.00029249
0.00029249
0.000297106
0.000297106
0.000279774
0.000279774
0.000295729
0.000295729
0.000215963
0.000215963
0.000286253
0.000286253
0.000163235
0.000163235
0.000238943
0.000238943
0.000276301
0.000276301
0.000298676
0.000298676
0.000292723
0.000292723
0.000154287
0.000154287
0.000159876
0.000159876
0.000289888
0.000289888
0.000214164
0.000214164
0.000204842
0.000204842
0.000203912
0.000203912
0.000166214
0.000166214
0.000265017
0.000265017
0.000298425
0.000298425
0.000295267
0.000295267
0.000229174
0.000229174
0.000179461
0.000179461
0.000299326
0.000299326
0.000166179
0.000166179
0.000233345
0.000233345
0.000218387
0.000218387
0.000205257
0.000205257
0.000295982
0.000295982
0.000293876
0.000293876
0.000208183
0.000208183
0.000281448
0.000281448
0.000209211
0.000209211
0.000297321
0.000297321
0.000282578
0.000282578
0.000294956
0.000294956
0.000290819
0.000290819
0.000297435
0.000297435
0.000155704
0.000155704
0.000299316
0.000299316
0.000260065
0.000260065
0.000285105
0.000285105
0.000298257
0.000298257
0.000206011
0.000206011
7.04493e-05
7.04493e-05
0.000162724
0.000162724
0.00015461
0.00015461
0.000289405
0.000289405
0.000210596
0.000210596
0.00022933
0.00022933
0.000291777
0.000291777
0.000221483
0.000221483
7.32982e-05
7.32982e-05
0.000296818
0.000296818
0.000298497
0.000298497
2.41993e-05
2.41993e-05
0.000290609
0.000290609
0.000172833
0.000172833
0.000215931
0.000215931
0.000295503
0.000295503
0.000292743
0.000292743
0.000295603
0.000295603
0.000297996
0.000297996
0.000299233
0.000299233
0.000289957
0.000289957
2.20537e-05
2.20537e-05
2.20537e-05
1.97636e-05
1.97636e-05
1.97636e-05
0.000297271
0.000297271
0.00020855
0.00020855
0.000227166
0.000227166
0.00016804
0.00016804
0.00028472
0.00028472
0.000286597
0.000286597
0.000220971
0.000220971
3.76024e-05
3.76024e-05
3.76024e-05
0.000180176
0.000180176
0.000298322
0.000298322
0.000293548
0.000293548
0.000210845
0.000210845
7.01935e-05
7.01935e-05
0.000298985
0.000298985
0.000295038
0.000295038
2.93583e-05
2.93583e-05
0.000291673
0.000291673
0.000231667
0.000231667
0.000297916
0.000297916
7.15867e-05
7.15867e-05
0.000218916
0.000218916
0.000215641
0.000215641
0.000218316
0.000218316
5.4073e-05
5.4073e-05
0.000297947
0.000297947
0.000260618
0.000260618
0.000266965
0.000266965
0.000265988
0.000265988
0.000295274
0.000295274
0.000220587
0.000220587
0.000299684
0.000299684
0.000188564
0.000188564
0.000289957
0.000289957
4.0673e-05
4.0673e-05
0.000277982
0.000277982
0.000296218
0.000296218
0.000212648
0.000212648
0.000280762
0.000280762
0.000295506
0.000295506
0.000218198
0.000218198
0.000156042
0.000156042
0.00029166
0.00029166
0.000182039
0.000182039
0.000220602
0.000220602
0.000297601
0.000297601
0.000293962
0.000293962
0.000227563
0.000227563
0.000264057
0.000264057
0.000294853
0.000294853
0.000276944
0.000276944
0.000226213
0.000226213
3.8236e-05
3.8236e-05
3.8236e-05
0.000225892
0.000225892
0.00019007
0.00019007
0.000197011
0.000197011
0.000188068
0.000188068
4.7445e-05
4.7445e-05
0.000293867
0.000293867
0.00022802
0.00022802
0.000262273
0.000262273
0.000284344
0.000284344
0.000213037
0.000213037
0.000266053
0.000266053
0.000176944
0.000176944
0.000172534
0.000172534
1.43676e-05
1.43676e-05
1.43676e-05
7.2841e-05
7.2841e-05
0.000272726
0.000272726
0.000296061
0.000296061
0.000225242
0.000225242
0.000219981
0.000219981
0.000295547
0.000295547
0.000286382
0.000286382
0.00022899
0.00022899
0.000263071
0.000263071
0.000290172
0.000290172
0.000231408
0.000231408
0.000285139
0.000285139
0.000224659
0.000224659
0.000296035
0.000296035
0.000266306
0.000266306
0.000225328
0.000225328
0.000293116
0.000293116
0.000296224
0.000296224
0.000232116
0.000232116
0.000190009
0.000190009
3.37179e-05
3.37179e-05
0.000244016
0.000244016
0.000197965
0.000197965
4.11413e-05
4.11413e-05
0.000226334
0.000226334
1.76982e-05
1.76982e-05
1.76982e-05
0.00029614
0.00029614
0.000263274
0.000263274
0.000238709
0.000238709
3.88911e-05
3.88911e-05
3.88911e-05
0.000294375
0.000294375
0.000199374
0.000199374
0.000295977
0.000295977
0.000178826
0.000178826
4.13283e-05
4.13283e-05
0.000169632
0.000169632
0.000288353
0.000288353
0.000299014
0.000299014
0.00029515
0.00029515
0.000295619
0.000295619
0.000293532
0.000293532
6.43763e-05
6.43763e-05
0.00023236
0.00023236
0.000289958
0.000289958
0.00029729
0.00029729
0.000296055
0.000296055
0.000209194
0.000209194
0.000198585
0.000198585
0.000231782
0.000231782
0.000271653
0.000271653
0.00021427
0.00021427
0.000283202
0.000283202
0.000250379
0.000250379
0.000296151
0.000296151
0.000249036
0.000249036
0.000285199
0.000285199
0.000181851
0.000181851
0.000293103
0.000293103
0.000191766
0.000191766
4.99482e-05
4.99482e-05
0.000192918
0.000192918
0.000223687
0.000223687
0.000209603
0.000209603
0.000202101
0.000202101
0.000238001
0.000238001
0.00029551
0.00029551
0.000290158
0.000290158
0.00022454
0.00022454
0.000296815
0.000296815
0.000193437
0.000193437
5.41601e-05
5.41601e-05
2.90138e-05
2.90138e-05
2.90138e-05
0.000249973
0.000249973
0.000287153
0.000287153
0.000204301
0.000204301
0.000294388
0.000294388
0.000293607
0.000293607
6.48291e-05
6.48291e-05
0.000289002
0.000289002
0.000199787
0.000199787
0.000294373
0.000294373
0.000279648
0.000279648
0.00022821
0.00022821
0.000296129
0.000296129
0.000151831
0.000151831
0.000221178
0.000221178
0.000295582
0.000295582
0.000180122
0.000180122
0.000290895
0.000290895
0.000296079
0.000296079
3.9358e-05
3.9358e-05
3.9358e-05
0.000296072
0.000296072
0.000295745
0.000295745
0.000287763
0.000287763
0.000291874
0.000291874
0.00020628
0.00020628
0.000201373
0.000201373
0.000295555
0.000295555
0.000199765
0.000199765
0.000292083
0.000292083
0.000173372
0.000173372
0.000287079
0.000287079
0.000280809
0.000280809
0.000274466
0.000274466
0.0002964
0.0002964
0.000218147
0.000218147
0.000215661
0.000215661
0.000290443
0.000290443
0.000291402
0.000291402
0.000219834
0.000219834
0.000282801
0.000282801
0.000195191
0.000195191
0.000296689
0.000296689
0.000225388
0.000225388
0.000211142
0.000211142