/*--------------------------------*- C++ -*----------------------------------*\
  =========                 |
  \\      /  F ield         | OpenFOAM: The Open Source CFD Toolbox
   \\    /   O peration     | Website:  https://openfoam.org
    \\  /    A nd           | Version:  8
     \\/     M anipulation  |
\*---------------------------------------------------------------------------*/
FoamFile
{
    version     2.0;
    format      ascii;
    class       volScalarField;
    location    "0.35";
    object      p;
}
// * * * * * * * * * * * * * * * * * * * * * * * * * * * * * * * * * * * * * //

dimensions      [1 -1 -2 0 0 0 0];

internalField   nonuniform List<scalar> 
1924
(
0
-0.233835
-1.24727
-1.49554
-0.323229
-1.69942
-2.143
-2.74879
-3.18417
-1.06708
-4.02633
-4.33717
4.82388
-4.77927
-9.30962
-9.74918
16.5941
-4.90547
-0.737165
-5.28564
58.8923
3.23956
2.79679
-5.30073
1.40867
-11.5416
-10.29
-0.776194
-0.50261
-2.14896
2.67975
2.27668
-5.16099
1.00007
-0.849659
2.87859
0.602646
-0.645882
-2.39988
2.62869
4.69094
25.5977
-5.34222
2.81953
-2.21388
-0.446523
-0.183192
-1.87022
183.527
-18.1096
3.00473
32.4896
2.47858
3.03574
1.04519
-1.11735
1.70548
-1.57909
-1.35408
-3.74749
2.8978
-9.77857
2.92603
5.47194
3.30054
-1.79398
-8.42716
2.7794
-0.686338
2.72193
-20.5518
-9.40986
-1.58962
-2.34917
-2.47026
-14.8687
-2.04554
-2.55037
-1.91974
2.76813
-3.88887
-0.872827
-1.83573
38.6605
-1.11736
2.6958
-1.2709
-8.87206
-11.133
-11.5892
-8.50149
-6.64839
-0.545287
-15.7619
24.7211
3.42481
-2.06351
-4.01621
-4.7212
-14.5714
-1.11264
34.008
-2.53932
-0.313568
-0.425257
-2.83862
-1.19118
5.9014
-2.94845
-3.2896
-2.30032
-0.861716
-0.549794
-2.41312
-2.05656
-8.34415
-1.2422
-9.58223
2.24449
-2.18593
54.9893
858.141
21.3884
-23.5984
-8.47543
6.03637
-13.9545
-2.69319
-1.89625
1056.94
-2.51714
-1.29104
-13.8228
-1.71603
37.75
-6.39551
-0.760962
-0.953816
-5.66266
-0.708321
-1.55975
-8.59452
-39.2153
29.9512
-1.51333
963.792
9.08035
-10.4675
-2.95014
2.23038
24.6199
976.5
-2.50144
-1.53909
-1.74168
10.1035
1074.39
-0.876354
-2.71963
3.48548
-1.85903
-13.4019
-1.70697
826.746
157.797
-2.82589
2.79561
1184.8
-2.34921
-2.37003
-0.18093
-2.50719
-2.94569
-4.97903
-1.47434
-0.144627
-2.2697
-15.1431
2.83388
-2.34533
3.75893
-8.50898
-2.34896
7.45605
205.013
-0.0228965
2.38702
5.85404
-2.52597
-2.12431
3.01873
-3.11663
-2.97771
-2.82067
-1.05849
915.72
1.70094
7.3973
10.8664
30.751
29.0047
-0.343912
-2.48665
-4.12502
-0.300635
-0.158862
-3.9743
3.23919
9.41344
-13.5966
715.784
-1.37904
-6.47838
-2.97975
2.95978
-2.6778
-2.82991
3.80495
-4.52927
-2.79092
14.4343
-0.699037
-3.12758
-6.99097
-4.51993
-0.25235
-3.28796
-3.23931
-3.31544
27.9046
-23.5511
-6.35688
1.96515
-13.9851
-0.807939
47.0285
-6.19291
-5.18004
-2.54784
810.098
-7.64547
-2.71624
-5.77146
1.24956
8.84275
16.8643
-4.85835
-1.79499
-2.4353
-3.11477
-0.228495
805.322
-4.68556
-1.69997
-2.71516
-7.24917
-9.16111
7.19005
15.3458
-5.2902
16.6568
-4.27213
-2.73661
-2.58222
0.861435
-2.55096
30.3427
-3.00272
-11.8247
2.54682
24.1008
49.2772
-2.01383
3.3027
-6.31346
-4.01474
-4.96581
-1.01729
-1.69733
19.7909
98.9858
1013.82
-8.58397
-6.04045
94.0859
-2.26495
-3.56777
885.359
-5.78921
-3.22158
-3.30336
-2.22557
-3.76114
-6.32413
-7.73807
199.573
-7.87903
32.3014
-2.93642
-6.79275
1035.63
-2.03078
-5.58109
-2.74668
-5.49304
-2.22978
10.3936
-5.2629
6.00709
-1.99754
15.6932
2.35854
-6.57971
1.91077
-2.93833
10.0497
13.5811
-5.96737
-3.74018
5.26377
-2.43963
18.2782
-2.84249
120.572
-4.88019
-3.59198
-0.98013
1.78637
-1.8132
-3.94509
6.25773
-7.94906
1.94109
-5.58731
-2.8703
-3.06406
-5.43891
-5.50531
-7.18675
-3.31813
-3.43634
11.1459
1.44631
35.0244
-7.93933
-10.3743
-3.19071
-8.54738
2.36415
0.751936
1.58459
0.561726
175.054
-6.01612
39.0594
-3.26623
725.907
-6.76137
7.65107
3.53523
-5.21729
-6.73795
-5.68512
-7.18966
1.21849
-4.04495
1.63199
10.0977
-6.92488
-5.61236
-5.14248
4.74529
0.412847
-7.00363
0.38683
-19.8463
-7.21255
-8.67447
1.10231
-10.2515
-9.6883
-3.13819
-8.4557
0.296609
13.6422
-4.89442
-2.77363
-7.48733
-2.0194
-4.79176
77.0697
1.76448
-4.22319
-7.6993
-6.31522
-13.8352
-6.47003
1.18429
-4.09482
-9.76656
891.446
-3.10701
22.7538
-6.05169
1252.71
-3.82034
-4.46157
-7.86955
1.04829
-4.04504
-2.85337
1.79417
-7.11688
-5.27039
-7.36742
-2.7336
-3.93908
-6.31456
2.49248
-2.13302
-5.99256
8.34817
-4.26353
30.846
1.15861
-5.49096
-3.12883
-1.66718
1.45381
0.40947
-4.59806
-3.78295
-2.96125
1.89915
-6.83472
5.98388
-5.25378
6.20785
-6.09668
1.08511
10.3042
-1.29852
-1.54654
315.219
-8.86452
33.6675
-4.70261
-3.00394
-5.27581
-5.41052
-8.32142
1.49188
-4.93271
-4.46931
-4.02229
-1.86052
-4.83329
-6.9014
1.94192
-9.48338
-3.55188
1.09714
4.0409
2.0915
12.0077
-5.68888
-6.53891
-7.49376
-6.33032
-1.9361
-0.571556
1.65169
-2.64735
-4.63872
2.48855
-3.42163
-1.57191
-7.93263
-8.90198
-8.80832
-3.28491
-7.3051
-3.11618
-7.21506
1.18351
0.421057
1.11407
-6.47922
-2.7989
-3.42355
3.9817
-2.67644
1.70312
-2.25959
-5.73933
-4.29171
-8.12695
-3.26623
0.602616
177.914
-5.518
-7.30786
6.51182
0.794033
27.5653
-2.72377
-6.14805
-7.19002
1.35059
-5.14356
-3.33358
-4.12536
-3.73161
-5.41125
-3.89881
-4.59001
0.896181
-2.6694
-7.05897
-8.87587
1.80364
-6.40215
-3.85571
-4.95876
-6.2275
-1.40406
-3.01229
2.96022
-0.45277
-7.75363
2.03929
-8.14762
1.40921
2.65706
4.27542
-5.13015
-7.58496
2.38057
3.43471
0.26152
1.01205
118.686
2.97953
-3.22891
-4.61975
-3.05489
-2.2141
56.76
-7.49825
-4.52325
-3.55778
-2.82607
-7.87743
1.55848
1.27091
2.57217
2.89374
3.12326
298.73
-1.11843
0.413399
1.86746
-3.68485
-2.92983
11.2329
2.52864
-3.71856
-2.5566
-2.56627
1.08295
-4.45854
-2.80742
-1.61728
-3.41112
-3.24047
-4.16479
2.78886
13.8214
-5.38284
2.38425
0.68374
-7.71741
-7.33943
-3.56164
3.36185
2.94873
-5.6914
2.49926
-4.17179
26.8931
-0.0352569
1.62106
80.3487
3.30186
3.10818
-5.21502
-4.33368
-3.04313
-5.83219
2.09179
3.56728
-5.8662
-7.9531
112.776
1.27421
-8.87496
-0.315504
-3.57505
2.49498
2.52166
0.130165
-6.79412
2.69685
-3.54181
0.761705
-7.06317
-7.16598
2.9963
3.4948
137.551
-4.90381
-4.02954
-2.84401
0.299105
-8.05167
-2.9523
2.92497
-7.1964
0.352651
2.57668
-7.68945
-2.78395
-3.20825
2.2388
1.34473
3.5698
-3.37223
363.696
-2.92493
-4.75327
-2.72407
-2.67549
0.947876
-2.42073
-2.65623
-6.13328
0.390007
-6.08398
-2.86213
4.64454
1.72679
-2.82874
-0.867339
-7.84449
2.85454
-3.17569
1.96238
-3.45865
-0.277613
2.47179
2.38488
3.03345
-3.16797
-4.46987
-3.31392
46.1145
-0.087581
-7.6425
1.47737
1.03073
0.617095
-3.8289
2.86548
-3.84862
-6.26247
-4.33225
-8.09219
-6.93253
3.18538
2.73679
-5.39707
-5.52885
-5.9065
-5.01552
0.0228466
-8.24162
-3.98009
680.857
-5.13345
2.97786
3.39319
-8.41935
-3.2998
-2.05789
1.79285
-5.75943
2.64861
-3.45941
0.703786
0.260639
-4.10066
2.27867
-2.74543
4.44116
3.36364
-2.83376
-2.72768
-1.75561
-4.99892
1.20461
1.54815
3.13805
-2.78123
758.178
-0.623797
0.409347
-2.94484
2.02581
-5.8585
218.499
-3.36806
-6.40545
-3.71067
2.88896
-6.99412
12.1064
-14.7307
3.55092
2.54079
-4.73697
-3.07205
2.48064
345.244
0.353707
-5.17112
-0.436147
-4.21321
-2.7264
-5.83336
2.18077
3.31154
-3.48044
-3.97911
3.76028
-3.94499
325.593
0.898655
2.81402
1.28093
-4.6092
-0.123545
-2.72223
-8.42321
338.204
268.816
-8.07421
-3.07936
3.48952
992.842
-6.14755
-2.84449
-3.71212
-5.95606
-4.36945
-0.0146787
2.66826
-1.21031
0.576267
3.0313
-2.42492
-6.6188
-2.29221
349.639
-2.85613
3.2489
-5.30083
0.985077
-0.794009
2.96798
-2.73988
2.41677
-3.64996
-8.67259
-2.67856
-6.06766
-3.14536
-6.48795
-2.63538
-5.59783
165.546
2.57935
1.90749
-5.50904
-2.9519
0.23042
-4.25079
-5.18951
2.95984
-2.63178
1.66421
3.25391
2.55072
-0.570054
-5.39211
-3.85118
-6.04981
261.163
-6.42463
-3.19928
0.669801
-3.3632
-4.96235
288.877
3.70433
1.41231
2.84157
-5.69664
3.19393
-0.424972
2.16431
2.22975
-8.38854
-5.78026
3.13541
-4.139
-4.84785
0.330724
-4.81232
-3.37954
2.76444
-6.38386
-4.0773
1.14453
-1.63158
-0.137283
-1.32087
-3.55724
-5.47307
-4.62144
789.278
-4.31343
3.69235
-2.31664
-0.992764
1024.95
1.97648
-2.41674
-0.0244692
-5.89161
1.73606
-8.97214
-3.69856
3.009
-3.75229
-6.27223
-2.82384
2.13558
0.85413
3.36837
-3.58954
-4.96815
-5.8343
-2.88392
-2.96682
2.46364
-3.09574
3.30937
-0.824212
2.93902
2.60497
-4.51028
1.48715
2.6903
-8.7065
0.545374
-2.99737
-3.97462
2.65556
211.63
-2.59787
95.743
1.22421
-5.70625
-3.1533
-2.6617
-0.52965
-3.21001
-4.75486
-3.93175
-4.38518
0.213916
-4.3106
272.045
-5.80777
-5.4147
-5.33039
-5.1421
-6.10801
2.37515
-6.18547
2.79607
-3.29384
0.941126
3.55086
-1.29937
-0.399037
-5.58427
3.18198
-1.98784
-5.6494
-1.76962
-3.53796
-5.04474
3.16506
3.48783
-3.50546
3.11648
-1.14184
0.639396
-3.7621
-3.52691
-6.12201
-0.134535
873.667
-4.8425
2.71629
-4.20888
-6.76477
-9.2393
-2.38788
0.315738
-5.93283
-0.914195
1.8676
-2.9985
2.90334
-5.35098
1.61873
-2.48923
-3.68113
-3.92324
2.19271
-4.74221
2.85108
3.68622
-2.80349
-0.0234441
-3.09267
2.97897
-6.0804
2.19274
-0.768777
226.324
1.36305
-4.75143
196.392
2.60072
-23.1278
2.90515
-5.57122
468.983
-4.54807
1.09658
-7.27015
3.36018
-3.34944
-5.7695
-0.496914
-1.68678
3.29593
-4.10374
0.814865
-3.69091
-1.47193
-5.95461
23.8465
-2.7527
-2.088
-4.32449
-5.66212
-5.97904
-2.25372
2.42877
0.517655
-1.24501
-3.98534
-0.376463
478.793
329.32
1.69485
2.15688
-3.48119
-4.44937
0.201474
1.44186
-3.84412
1.94071
-4.8768
-5.22778
2.74929
-1.10812
3.16156
2.10211
-5.46417
1.17904
2.65971
-5.9815
-4.77685
-5.28143
554.261
-0.12929
3.09164
-5.8126
-2.89295
-5.20218
-5.03032
-2.98849
-2.54241
0.9026
-0.854006
-5.50736
-5.76443
-5.43957
132.556
-4.02226
-4.29948
-3.2141
0.611146
-3.77127
-2.00247
28.0472
480.299
2.34241
-4.94316
-4.52832
3.54392
3.478
0.301713
-5.02109
348.76
-0.730625
2.65402
-5.94215
-8.26483
-4.18322
-5.70835
-1.55894
-4.75869
-2.03414
-1.8596
-3.32884
-0.0222494
-5.62936
2.94667
-0.471379
-3.56876
-6.17781
-1.43008
-5.67792
-3.92762
1.58771
-2.35597
2.57083
1.32905
256.041
2.86761
-4.21641
-5.86437
-1.19471
-4.6719
3.34516
-5.87245
3.27737
-0.358392
1.06205
-2.49773
-3.59835
3.68201
-5.50894
0.784242
-1.06996
-2.91748
-3.09204
0.494329
227.779
2.87502
1.8399
-4.52113
-2.86905
-5.80867
-2.73437
0.18969
-5.2841
-3.11769
-3.02219
-0.815803
-3.20185
-5.86503
-3.41496
-3.735
3.13755
1.41122
-0.127619
2.16622
-3.36114
-1.8897
3.59923
2.40253
-2.18923
-4.82514
-1.74574
3.06489
-4.51149
3.78469
3.77709
-6.78019
2.82679
-0.699011
-5.39838
1.14728
-1.51186
-2.33189
2.79155
-5.70311
-5.33198
-5.18477
-5.18343
-3.44495
0.873407
-3.58214
-4.44559
-5.4361
-4.24137
-5.86316
0.587944
1.66728
-1.38884
-5.11093
-4.95375
3.46351
0.288525
-5.6433
3.76173
3.53164
2.62956
-0.455202
-3.86315
-1.15225
-0.0237254
-2.86622
347.594
-3.56932
-4.8748
-5.83602
-5.21611
-5.78718
-5.52261
2.91141
-4.0174
471.324
-2.96772
-2.6047
3.75143
-4.03079
-1.03421
224.543
3.32665
-3.07956
-4.70186
-0.347222
-5.57507
1.9163
2.31847
3.25664
-7.80105
-4.95767
-3.31024
546.148
-2.05193
-4.68058
-4.40487
2.54854
-5.79567
2.07892
-2.84752
1.3078
3.67201
-0.788158
-2.19906
-1.81309
-4.17587
1.03997
-2.06569
467.224
110.413
-5.52368
1110.88
-1.69184
0.763606
2.84917
-4.16681
-5.82403
-3.42688
1.56834
-3.83432
0.47758
-1.47017
973.757
-4.61335
-5.32473
0.180068
-5.70957
3.11291
-5.75888
-4.01375
528.259
-5.69388
-0.676719
-5.31723
191.519
50.2008
-2.47208
-1.35308
-0.128441
524.559
-5.82319
3.03822
2.77053
3.62967
-4.33223
-5.25366
-1.118
-2.59957
-5.43993
-5.48489
-5.28626
-5.6641
1.82223
-3.96967
1.39319
-5.67308
-4.95535
-3.67564
3.44668
3.51621
-5.8333
-0.446517
-3.1868
1.12833
381.901
-2.96521
0.855407
-5.08528
0.573097
-4.46266
285.819
-5.11609
688.608
1210.87
-3.30028
-4.70112
0.279908
3.7478
757.695
-1.00504
3.06398
2.3846
-0.0245949
1.65094
-5.49433
-2.1106
-5.04782
3.30718
2.61254
-4.91111
-1.76774
-5.82056
-1.9909
2.14913
3.23599
3.25382
-4.24854
-5.42439
3.65796
-4.84935
-4.52093
-2.36155
-5.80046
-3.53474
-1.6547
-5.10971
-0.339417
-4.61002
1082.72
-3.80174
2.98612
-5.60668
-5.78525
-2.84956
-0.770344
-2.94412
-2.48502
-1.43451
1137.27
-5.77733
-4.89087
-4.84607
-4.39011
-3.09323
1.90145
-5.76185
-2.85887
-3.30881
2.74483
-1.32268
-5.37776
-2.0878
2.8332
-5.2373
-3.65356
3.6358
-5.58946
-4.66882
-5.02827
-0.661062
-3.07658
-2.98606
-5.40361
-5.43234
2.53242
-4.0622
-5.79448
2.30195
-3.18748
-2.73015
3.01064
-5.25843
3.08909
-5.83521
-3.68438
-3.78391
885.73
2.06417
-5.2735
3.7397
-3.40994
-4.80775
484.926
-4.19536
-1.09346
-5.75223
-5.59957
3.43741
-3.96264
-5.0913
-5.87025
-4.61158
326.348
259.954
3.42954
971.01
-5.23131
3.49972
-2.05508
-5.86237
-2.28175
-4.46433
-5.86318
-3.5236
122.752
-2.97563
28.8988
-2.12417
-5.84178
-5.8716
1097.72
-4.1121
-2.39728
2.75558
-1.94554
1.56097
3.04716
1.30035
-3.90048
3.64181
899.447
760.012
1.03291
-5.7276
1285.39
-4.59953
-1.73339
470.994
0.758084
-4.87039
0.474856
-5.19826
389.777
0.182286
-0.983572
223.019
-5.00601
-5.39148
1188.85
-4.26602
-0.120731
-2.74628
3.28874
-4.02523
-2.63126
-5.56121
-1.62543
-5.88081
-3.75739
2.18664
-3.30108
1.81491
-5.73687
686.437
-4.28065
-5.386
-3.08689
3.21683
1.00821
3.72703
1165.66
-0.433518
-5.64232
-5.53989
-3.41026
-1.40759
-4.40985
2.97182
-4.67034
-3.87552
-4.45925
-5.33253
-5.94167
3.25572
-5.38825
-5.07262
-4.79873
-5.98664
-5.955
-3.63166
2.05884
-2.99386
-2.33524
2.29608
-4.1179
-5.75827
-4.86884
-5.56304
-5.493
-5.90414
-0.753096
-5.88482
-2.66509
-2.22825
2.52614
-3.20666
-1.29948
-5.7302
-3.74413
341.572
-2.88445
-5.01234
-2.55538
-5.82064
-3.31196
-6.00174
962.161
-5.88882
1099.14
-5.8414
3.18187
-4.24027
1333.4
-5.35494
-5.04911
-4.57392
-2.01837
1306.08
-3.12486
-4.48954
1168.76
3.62539
3.71151
3.27009
-3.52286
-5.54196
-5.58682
893.781
-5.45779
-5.50703
2.74909
-3.97411
3.48397
-3.42974
-2.91601
-4.61219
-3.22779
-1.91482
3.41366
-5.21949
-1.07373
-3.63014
-2.81189
-5.3543
-2.60349
968.823
1.64683
-6.06031
684.649
1.38906
-3.84811
1.12452
-3.53232
-5.98165
0.852842
-4.09018
-4.85122
0.573144
-3.35145
-5.48233
2.96525
0.284068
-0.0154893
-2.49985
2.0799
-3.44964
-6.00623
-1.70776
-3.15501
-6.08696
537.095
352.132
329.854
-0.325292
-2.29382
-4.32742
-3.73923
-5.98861
-3.05541
1310.83
-5.67944
-2.85611
-3.64652
-5.8337
3.17528
3.27162
897.215
-0.643055
-6.10799
-3.95844
3.69512
-5.43157
-3.28645
-3.56904
-5.58012
-2.75735
1.89806
2.1391
-4.44419
-3.84414
2.37347
-5.92191
-1.38807
-3.38104
-1.60341
1364.37
-5.41872
-5.1744
-4.67405
3.19782
-5.30081
-5.89541
-3.66414
-3.74638
-5.7195
-5.55902
-2.55959
-5.79811
-3.09636
2.60077
-5.77237
-5.60878
-2.19331
3.4486
-5.60628
-0.963771
-5.82906
638.13
541.896
894.051
-5.62733
-3.00169
-3.50571
-3.85592
-4.97902
-3.94861
1377.32
3.6102
-5.04227
-3.59638
-5.89038
-6.00086
-2.81252
-5.65246
-3.77859
-6.19674
-2.46207
-4.9526
-4.98141
-5.1619
2.82113
-4.18363
-5.45334
-3.32493
-5.63953
-1.99361
-6.03458
-4.05758
-6.10634
1169.18
-5.81101
-1.28049
3.03492
-3.23421
-6.09517
3.6795
-5.87908
-3.86895
-3.95099
-5.52741
-3.0531
-4.79803
-4.51397
-5.9252
-5.68334
-5.8071
-5.58254
-2.71879
-5.94871
-5.68007
-3.71568
754.349
-3.45544
-6.14303
-3.54212
-5.32246
-2.26766
-5.78997
3.37903
3.24292
-5.91992
1102.7
-4.29456
-5.86472
-5.70504
-5.72362
-3.8016
-4.04867
-6.20256
-5.75224
-6.00671
-2.9633
-5.76964
-3.28217
-5.68808
1307.76
1379.44
-3.66627
-5.74632
-5.73858
3.47009
31.706
-4.04675
-4.63223
-6.00429
-6.13229
-3.97045
-5.90996
-1.69057
-1.58705
-3.74801
-3.50065
-3.19596
-2.53115
-5.40791
-5.53734
-1.89419
-5.71474
-4.13846
-3.90863
-3.62983
3.39937
-3.41774
-5.99709
-2.78328
1099.69
961.776
-6.04737
-3.70764
-5.8365
-6.25753
-6.2815
-6.05
-5.84968
-4.16294
-5.88551
-2.43935
-5.87542
-5.89758
-3.86051
-5.66807
-3.0237
-5.18542
-2.17216
-4.05974
-5.82277
-4.14131
-4.37147
-4.48357
-5.98768
-5.27486
-6.04628
-5.85396
-3.25274
-6.17692
-3.99296
-3.8257
-3.47102
-2.25522
-2.51932
-2.42934
-6.14448
3.66576
-6.14752
-3.94009
-3.67994
-6.039
-5.96747
-5.80416
-6.36673
-6.296
-6.31784
-4.24646
-6.0051
-4.23859
-3.90062
-6.02357
-6.14447
-5.97848
-2.69521
-5.95072
-3.87431
-3.80407
-3.60547
-6.13774
-6.12965
-2.93952
-6.19501
-6.03042
-3.17229
-6.10894
-6.16998
-3.394
-5.13313
-6.3175
-6.37768
-6.30976
-6.1233
-6.19044
1165.17
1299.14
-6.36483
1362.74
-6.30319
1370.13
-2.93126
-3.01283
-4.35246
-2.77186
-2.68609
-2.16082
-3.24225
-3.16483
-1.88033
-1.97905
-6.32924
-6.39065
-6.33424
-6.38526
-6.325
-6.39119
-6.32775
-6.37091
-3.86324
-3.79675
-3.66741
-3.5979
-3.38698
-3.46035
-6.3843
-6.18359
-2.24841
-6.19771
-6.20236
-6.20241
3.59718
3.65481
742.406
32.524
639.801
3.64534
3.45783
2.07784
3.36975
3.38773
3.58677
983.252
-2.36455
685.138
535.393
3.57968
659.422
1.96378
625.049
656.225
2.23082
664.661
4.4756
35.5248
700.499
3.81293
3.69724
550.611
574.217
-198.498
542.881
394.99
612.565
479.641
628.99
773.557
476.02
535.651
503.146
716.458
22.4156
2.01721
509.595
3.20659
2.93343
832.58
802.014
519.466
57.7911
-2.53124
234.397
1256.52
1257.43
571.422
708.125
620.993
520.616
546.694
571.564
653.799
1500.77
1362.58
552.415
13.5372
288.264
-2.67606
323.233
437.92
2.59507
331.158
-15.2272
379.728
6.14307
278.082
25.5843
3.21521
495.605
39.1624
257.64
14.5281
467.628
-4.50363
5.58433
2.9677
3.85738
270.888
-5.07465
312.05
-8.15724
532.052
2.55639
2.47217
-5.54006
133.679
84.9431
1545.32
2.38129
-4.34466
144.058
-4.73701
2.46397
143.174
2.36026
-4.79619
169.474
2.2208
140.489
232.144
241.849
-438.67
2.31507
1377.15
1332.2
-5.20406
)
;

boundaryField
{
    patch0
    {
        type            calculated;
        value           nonuniform List<scalar> 
4010
(
2.22045e-16
2.22045e-16
-0.233835
-0.233835
-1.24727
-1.24727
-1.49554
-1.49554
-0.323229
-0.323229
-1.69942
-1.69942
-2.143
-2.143
-2.74879
-2.74879
-3.18417
-3.18417
-1.06708
-1.06708
-4.02633
-4.02633
-4.33717
-4.33717
4.82388
4.82388
-4.77927
-4.77927
-9.30962
-9.30962
-9.74918
-9.74918
16.5941
16.5941
-4.90547
-4.90547
-0.737165
-0.737165
-5.28564
-5.28564
58.8923
58.8923
3.23956
3.23956
2.79679
2.79679
-5.30073
-5.30073
1.40867
1.40867
-11.5416
-11.5416
-10.29
-10.29
-0.776194
-0.776194
-0.50261
-0.50261
-2.14896
-2.14896
2.67975
2.67975
2.27668
2.27668
-5.16099
-5.16099
1.00007
1.00007
-0.849659
-0.849659
2.87859
2.87859
0.602646
0.602646
-0.645882
-0.645882
-2.39988
-2.39988
2.62869
2.62869
4.69094
4.69094
25.5977
25.5977
-5.34222
-5.34222
2.81953
2.81953
-2.21388
-2.21388
-0.446523
-0.446523
-0.183192
-0.183192
-1.87022
-1.87022
183.527
183.527
-18.1096
-18.1096
3.00473
3.00473
32.4896
32.4896
2.47858
2.47858
3.03574
3.03574
1.04519
1.04519
-1.11735
-1.11735
1.70548
1.70548
-1.57909
-1.57909
-1.35408
-1.35408
-3.74749
-3.74749
2.8978
2.8978
-9.77857
-9.77857
2.92603
2.92603
5.47194
5.47194
3.30054
3.30054
-1.79398
-1.79398
-8.42716
-8.42716
2.7794
2.7794
-0.686338
-0.686338
2.72193
2.72193
-20.5518
-20.5518
-9.40986
-9.40986
-1.58962
-1.58962
-2.34917
-2.34917
-2.47026
-2.47026
-14.8687
-14.8687
-2.04554
-2.04554
-2.55037
-2.55037
-1.91974
-1.91974
2.76813
2.76813
-3.88887
-3.88887
-0.872827
-0.872827
-1.83573
-1.83573
38.6605
38.6605
-1.11736
-1.11736
2.6958
2.6958
-1.2709
-1.2709
-8.87206
-8.87206
-11.133
-11.133
-11.5892
-11.5892
-8.50149
-8.50149
-6.64839
-6.64839
-0.545287
-0.545287
-15.7619
-15.7619
24.7211
24.7211
3.42481
3.42481
-2.06351
-2.06351
-4.01621
-4.01621
-4.7212
-4.7212
-14.5714
-14.5714
-1.11264
-1.11264
34.008
34.008
-2.53932
-2.53932
-0.313568
-0.313568
-0.425257
-0.425257
-2.83862
-2.83862
-1.19118
-1.19118
5.9014
5.9014
-2.94845
-2.94845
-3.2896
-3.2896
-2.30032
-2.30032
-0.861716
-0.861716
-0.549794
-0.549794
-2.41312
-2.41312
-2.05656
-2.05656
-8.34415
-8.34415
-1.2422
-1.2422
-9.58223
-9.58223
2.24449
2.24449
-2.18593
-2.18593
54.9893
54.9893
858.141
858.141
21.3884
21.3884
-23.5984
-23.5984
-8.47543
-8.47543
6.03637
6.03637
-13.9545
-13.9545
-2.69319
-2.69319
-1.89625
-1.89625
1056.94
1056.94
-2.51714
-2.51714
-1.29104
-1.29104
-13.8228
-13.8228
-1.71603
-1.71603
37.75
37.75
-6.39551
-6.39551
-0.760962
-0.760962
-0.953816
-0.953816
-5.66266
-5.66266
-0.708321
-0.708321
-1.55975
-1.55975
-8.59452
-8.59452
-39.2153
-39.2153
-31.5587
29.9512
29.9512
52.2079
-1.51333
-1.51333
963.792
963.792
9.08035
9.08035
-10.4675
-10.4675
-2.95014
-2.95014
2.23038
2.23038
24.6199
24.6199
976.5
976.5
1070.24
-2.50144
-2.50144
-1.53909
-1.53909
-1.74168
-1.74168
10.1035
10.1035
1074.39
1074.39
-0.876354
-0.876354
-2.71963
-2.71963
3.48548
3.48548
-1.85903
-1.85903
-13.4019
-13.4019
-1.70697
-1.70697
826.746
826.746
157.797
157.797
-2.82589
-2.82589
2.79561
2.79561
1184.8
1184.8
-2.34921
-2.34921
-2.37003
-2.37003
-0.18093
-0.18093
-2.50719
-2.50719
-2.94569
-2.94569
-4.97903
-4.97903
-1.47434
-1.47434
-0.144627
-0.144627
-2.2697
-2.2697
-15.1431
-15.1431
2.83388
2.83388
-2.34533
-2.34533
3.75893
3.75893
-8.50898
-8.50898
-2.34896
-2.34896
7.45605
7.45605
205.013
205.013
-0.0228965
-0.0228965
2.38702
2.38702
5.85404
5.85404
-2.52597
-2.52597
-2.12431
-2.12431
3.01873
3.01873
-3.11663
-3.11663
-2.97771
-2.97771
-2.82067
-2.82067
-1.05849
-1.05849
915.72
915.72
1009.46
1.70094
1.70094
7.3973
7.3973
10.8664
10.8664
30.751
30.751
29.0047
29.0047
-0.343912
-0.343912
-2.48665
-2.48665
-4.12502
-4.12502
-0.300635
-0.300635
-0.158862
-0.158862
-3.9743
-3.9743
3.23919
3.23919
9.41344
9.41344
-13.5966
-13.5966
-13.5649
715.784
715.784
-1.37904
-1.37904
-6.47838
-6.47838
-2.97975
-2.97975
2.95978
2.95978
-2.6778
-2.6778
-2.82991
-2.82991
3.80495
3.80495
-4.52927
-4.52927
-2.79092
-2.79092
14.4343
14.4343
-0.699037
-0.699037
-3.12758
-3.12758
-6.99097
-6.99097
-4.51993
-4.51993
-0.25235
-0.25235
-3.28796
-3.28796
-3.23931
-3.23931
-3.31544
-3.31544
27.9046
27.9046
-23.5511
-23.5511
-6.35688
-6.35688
1.96515
1.96515
-13.9851
-13.9851
-0.807939
-0.807939
47.0285
47.0285
74.1171
-6.19291
-6.19291
-5.18004
-5.18004
-2.54784
-2.54784
810.098
810.098
903.838
-7.64547
-7.64547
-2.71624
-2.71624
-5.77146
-5.77146
1.24956
1.24956
8.84275
8.84275
16.8643
16.8643
-4.85835
-4.85835
-1.79499
-1.79499
-2.4353
-2.4353
-3.11477
-3.11477
-0.228495
-0.228495
805.322
805.322
-4.68556
-4.68556
-1.69997
-1.69997
-2.71516
-2.71516
-7.24917
-7.24917
-9.16111
-9.16111
7.19005
7.19005
15.3458
15.3458
-5.2902
-5.2902
16.6568
16.6568
-4.27213
-4.27213
-2.73661
-2.73661
-2.58222
-2.58222
0.861435
0.861435
-2.55096
-2.55096
30.3427
30.3427
-3.00272
-3.00272
-11.8247
-11.8247
2.54682
2.54682
24.1008
24.1008
49.2772
49.2772
-2.01383
-2.01383
3.3027
3.3027
-6.31346
-6.31346
-4.01474
-4.01474
-4.96581
-4.96581
-1.01729
-1.01729
-1.69733
-1.69733
19.7909
19.7909
98.9858
98.9858
1013.82
1013.82
1080.61
-8.58397
-8.58397
-6.04045
-6.04045
94.0859
94.0859
-2.26495
-2.26495
-3.56777
-3.56777
885.359
885.359
-5.78921
-5.78921
-3.22158
-3.22158
-3.30336
-3.30336
-2.22557
-2.22557
-3.76114
-3.76114
-6.32413
-6.32413
-7.73807
-7.73807
199.573
199.573
-7.87903
-7.87903
32.3014
32.3014
-2.93642
-2.93642
-6.79275
-6.79275
1035.63
1035.63
1125.41
-2.03078
-2.03078
-5.58109
-5.58109
-2.74668
-2.74668
-5.49304
-5.49304
-2.22978
-2.22978
10.3936
10.3936
-5.2629
-5.2629
6.00709
6.00709
-1.99754
-1.99754
15.6932
15.6932
2.35854
2.35854
-6.57971
-6.57971
1.91077
1.91077
-2.93833
-2.93833
10.0497
10.0497
13.5811
13.5811
-5.96737
-5.96737
-3.74018
-3.74018
5.26377
5.26377
-2.43963
-2.43963
18.2782
18.2782
-2.84249
-2.84249
120.572
120.572
-4.88019
-4.88019
-3.59198
-3.59198
-0.98013
-0.98013
1.78637
1.78637
-1.8132
-1.8132
-3.94509
-3.94509
6.25773
6.25773
-7.94906
-7.94906
1.94109
1.94109
-5.58731
-5.58731
-2.8703
-2.8703
-3.06406
-3.06406
-5.43891
-5.43891
-5.50531
-5.50531
-7.18675
-7.18675
-3.31813
-3.31813
-3.43634
-3.43634
11.1459
11.1459
1.44631
1.44631
35.0244
35.0244
-7.93933
-7.93933
-10.3743
-10.3743
-3.19071
-3.19071
-8.54738
-8.54738
2.36415
2.36415
0.751936
0.751936
1.58459
1.58459
0.561726
0.561726
175.054
175.054
-6.01612
-6.01612
39.0594
39.0594
-3.26623
-3.26623
725.907
725.907
-6.76137
-6.76137
7.65107
7.65107
3.53523
3.53523
-5.21729
-5.21729
-6.73795
-6.73795
-5.68512
-5.68512
-7.18966
-7.18966
1.21849
1.21849
-4.04495
-4.04495
1.63199
1.63199
10.0977
10.0977
-6.92488
-6.92488
-5.61236
-5.61236
-5.14248
-5.14248
4.74529
4.74529
0.412847
0.412847
-7.00363
-7.00363
0.38683
0.38683
-19.8463
-19.8463
-7.21255
-7.21255
-8.67447
-8.67447
1.10231
1.10231
-10.2515
-10.2515
-9.6883
-9.6883
-3.13819
-3.13819
-8.4557
-8.4557
0.296609
0.296609
13.6422
13.6422
-4.89442
-4.89442
-2.77363
-2.77363
-7.48733
-7.48733
-2.0194
-2.0194
-4.79176
-4.79176
77.0697
77.0697
1.76448
1.76448
-4.22319
-4.22319
-7.6993
-7.6993
-6.31522
-6.31522
-13.8352
-13.8352
-13.7941
-6.47003
-6.47003
1.18429
1.18429
-4.09482
-4.09482
-9.76656
-9.76656
891.446
891.446
-3.10701
-3.10701
22.7538
22.7538
-6.05169
-6.05169
1252.71
1252.71
1301.07
-3.82034
-3.82034
-4.46157
-4.46157
-7.86955
-7.86955
1.04829
1.04829
-4.04504
-4.04504
-2.85337
-2.85337
1.79417
1.79417
-7.11688
-7.11688
-5.27039
-5.27039
-7.36742
-7.36742
-2.7336
-2.7336
-3.93908
-3.93908
-6.31456
-6.31456
2.49248
2.49248
-2.13302
-2.13302
-5.99256
-5.99256
8.34817
8.34817
-4.26353
-4.26353
30.846
30.846
1.15861
1.15861
-5.49096
-5.49096
-3.12883
-3.12883
-1.66718
-1.66718
1.45381
1.45381
0.40947
0.40947
-4.59806
-4.59806
-3.78295
-3.78295
-2.96125
-2.96125
1.89915
1.89915
-6.83472
-6.83472
5.98388
5.98388
-5.25378
-5.25378
6.20785
6.20785
-6.09668
-6.09668
1.08511
1.08511
10.3042
10.3042
-1.29852
-1.29852
-1.54654
-1.54654
315.219
315.219
-8.86452
-8.86452
33.6675
33.6675
62.24
-4.70261
-4.70261
-3.00394
-3.00394
-5.27581
-5.27581
-5.41052
-5.41052
-8.32142
-8.32142
1.49188
1.49188
-4.93271
-4.93271
-4.46931
-4.46931
-4.02229
-4.02229
-1.86052
-1.86052
-4.83329
-4.83329
-6.9014
-6.9014
1.94192
1.94192
-9.48338
-9.48338
-3.55188
-3.55188
1.09714
1.09714
4.0409
4.0409
2.0915
2.0915
12.0077
12.0077
-5.68888
-5.68888
-6.53891
-6.53891
-7.49376
-7.49376
-6.33032
-6.33032
-1.9361
-1.9361
-0.571556
-0.571556
1.65169
1.65169
-2.64735
-2.64735
-4.63872
-4.63872
2.48855
2.48855
-3.42163
-3.42163
-1.57191
-1.57191
-7.93263
-7.93263
-8.90198
-8.90198
-8.80832
-8.80832
-3.28491
-3.28491
-7.3051
-7.3051
-3.11618
-3.11618
-7.21506
-7.21506
1.18351
1.18351
0.421057
0.421057
1.11407
1.11407
-6.47922
-6.47922
-2.7989
-2.7989
-3.42355
-3.42355
3.9817
3.9817
-2.67644
-2.67644
1.70312
1.70312
-2.25959
-2.25959
-5.73933
-5.73933
-4.29171
-4.29171
-8.12695
-8.12695
-3.26623
-3.26623
0.602616
0.602616
177.914
177.914
-5.518
-5.518
-7.30786
-7.30786
6.51182
6.51182
0.794033
0.794033
27.5653
27.5653
-2.72377
-2.72377
-6.14805
-6.14805
-7.19002
-7.19002
1.35059
1.35059
-5.14356
-5.14356
-3.33358
-3.33358
-4.12536
-4.12536
-3.73161
-3.73161
-5.41125
-5.41125
-3.89881
-3.89881
-4.59001
-4.59001
0.896181
0.896181
-2.6694
-2.6694
-7.05897
-7.05897
-8.87587
-8.87587
1.80364
1.80364
-6.40215
-6.40215
-3.85571
-3.85571
-4.95876
-4.95876
-6.2275
-6.2275
-1.40406
-1.40406
-3.01229
-3.01229
2.96022
2.96022
-0.45277
-0.45277
-7.75363
-7.75363
2.03929
2.03929
-8.14762
-8.14762
1.40921
1.40921
2.65706
2.65706
4.27542
4.27542
-5.13015
-5.13015
-7.58496
-7.58496
2.38057
2.38057
3.43471
3.43471
0.26152
0.26152
1.01205
1.01205
118.686
118.686
2.97953
2.97953
-3.22891
-3.22891
-4.61975
-4.61975
-3.05489
-3.05489
-2.2141
-2.2141
56.76
56.76
-7.49825
-7.49825
-4.52325
-4.52325
-3.55778
-3.55778
-2.82607
-2.82607
-7.87743
-7.87743
1.55848
1.55848
1.27091
1.27091
2.57217
2.57217
2.89374
2.89374
3.12326
3.12326
298.73
298.73
-1.11843
-1.11843
0.413399
0.413399
1.86746
1.86746
-3.68485
-3.68485
-2.92983
-2.92983
11.2329
11.2329
2.52864
2.52864
-3.71856
-3.71856
-2.5566
-2.5566
-2.56627
-2.56627
1.08295
1.08295
-4.45854
-4.45854
-2.80742
-2.80742
-1.61728
-1.61728
-3.41112
-3.41112
-3.24047
-3.24047
-4.16479
-4.16479
2.78886
2.78886
13.8214
13.8214
-5.38284
-5.38284
2.38425
2.38425
0.68374
0.68374
-7.71741
-7.71741
-7.33943
-7.33943
-3.56164
-3.56164
3.36185
3.36185
2.94873
2.94873
-5.6914
-5.6914
2.49926
2.49926
-4.17179
-4.17179
26.8931
26.8931
-0.0352569
-0.0352569
1.62106
1.62106
80.3487
80.3487
3.30186
3.30186
3.10818
3.10818
-5.21502
-5.21502
-4.33368
-4.33368
-3.04313
-3.04313
-5.83219
-5.83219
2.09179
2.09179
3.56728
3.56728
-5.8662
-5.8662
-7.9531
-7.9531
112.776
112.776
1.27421
1.27421
-8.87496
-8.87496
-0.315504
-0.315504
-3.57505
-3.57505
2.49498
2.49498
2.52166
2.52166
0.130165
0.130165
-6.79412
-6.79412
2.69685
2.69685
-3.54181
-3.54181
0.761705
0.761705
-7.06317
-7.06317
-7.16598
-7.16598
2.9963
2.9963
3.4948
3.4948
137.551
137.551
-4.90381
-4.90381
-4.02954
-4.02954
-2.84401
-2.84401
0.299105
0.299105
-8.05167
-8.05167
-2.9523
-2.9523
2.92497
2.92497
-7.1964
-7.1964
0.352651
0.352651
2.57668
2.57668
-7.68945
-7.68945
-2.78395
-2.78395
-3.20825
-3.20825
2.2388
2.2388
1.34473
1.34473
3.5698
3.5698
-3.37223
-3.37223
363.696
363.696
-2.92493
-2.92493
-4.75327
-4.75327
-2.72407
-2.72407
-2.67549
-2.67549
0.947876
0.947876
-2.42073
-2.42073
-2.65623
-2.65623
-6.13328
-6.13328
0.390007
0.390007
-6.08398
-6.08398
-2.86213
-2.86213
4.64454
4.64454
1.72679
1.72679
-2.82874
-2.82874
-0.867339
-0.867339
-7.84449
-7.84449
2.85454
2.85454
-3.17569
-3.17569
1.96238
1.96238
-3.45865
-3.45865
-0.277613
-0.277613
2.47179
2.47179
2.38488
2.38488
3.03345
3.03345
-3.16797
-3.16797
-4.46987
-4.46987
-3.31392
-3.31392
46.1145
46.1145
-0.087581
-0.087581
-7.6425
-7.6425
1.47737
1.47737
1.03073
1.03073
0.617095
0.617095
-3.8289
-3.8289
2.86548
2.86548
-3.84862
-3.84862
-6.26247
-6.26247
-4.33225
-4.33225
-8.09219
-8.09219
-6.93253
-6.93253
3.18538
3.18538
2.73679
2.73679
-5.39707
-5.39707
-5.52885
-5.52885
-5.9065
-5.9065
-5.01552
-5.01552
0.0228466
0.0228466
-8.24162
-8.24162
-3.98009
-3.98009
680.857
680.857
-5.13345
-5.13345
2.97786
2.97786
3.39319
3.39319
-8.41935
-8.41935
-3.2998
-3.2998
-2.05789
-2.05789
1.79285
1.79285
-5.75943
-5.75943
2.64861
2.64861
-3.45941
-3.45941
0.703786
0.703786
0.260639
0.260639
-4.10066
-4.10066
2.27867
2.27867
-2.74543
-2.74543
4.44116
4.44116
3.36364
3.36364
-2.83376
-2.83376
-2.72768
-2.72768
-1.75561
-1.75561
-4.99892
-4.99892
1.20461
1.20461
1.54815
1.54815
3.13805
3.13805
-2.78123
-2.78123
758.178
758.178
-0.623797
-0.623797
0.409347
0.409347
-2.94484
-2.94484
2.02581
2.02581
-5.8585
-5.8585
218.499
218.499
-3.36806
-3.36806
-6.40545
-6.40545
-3.71067
-3.71067
2.88896
2.88896
-6.99412
-6.99412
12.1064
12.1064
-14.7307