/*--------------------------------*- C++ -*----------------------------------*\
  =========                 |
  \\      /  F ield         | OpenFOAM: The Open Source CFD Toolbox
   \\    /   O peration     | Website:  https://openfoam.org
    \\  /    A nd           | Version:  8
     \\/     M anipulation  |
\*---------------------------------------------------------------------------*/
FoamFile
{
    version     2.0;
    format      ascii;
    class       volScalarField;
    location    "0.35";
    object      p_rgh;
}
// * * * * * * * * * * * * * * * * * * * * * * * * * * * * * * * * * * * * * //

dimensions      [1 -1 -2 0 0 0 0];

internalField   nonuniform List<scalar> 
1924
(
1.39333
1.26401
0.720621
0.52972
1.23964
1.36836
3.58553
4.98592
4.72265
0.8054
3.39862
-0.717737
539.783
-2.12856
-5.67043
-4.18435
459.119
-2.18489
0.807542
-2.46946
1039.12
7.80828
3.96184
-2.41934
3.94868
1009.45
724.843
0.876655
1.16087
-0.541648
3.95226
255.291
130.031
121.144
0.864645
4.06975
1042.75
1.072
-0.83007
8.4158
1125.65
746.787
554.197
3.88359
-0.573933
204.754
1.22053
-0.0723657
846.51
824.78
3.6271
1122.79
4.61949
3.5745
642.578
0.705093
108.754
0.132782
0.310182
3.02453
3.86455
-6.20265
3.81788
214.104
3.74445
0.0617754
-4.59616
4.11155
1.27045
3.43749
1134.03
-5.71825
-0.145863
-0.628657
-0.65223
-12.7691
-0.0840571
-0.645456
-0.118156
3.56839
-1.17908
291.519
-0.313509
1099.78
7.27425
4.06789
0.431916
-5.47705
718.277
1093.51
-4.78755
1055.07
656.969
527.816
1256.2
3.79288
-0.050847
-1.28605
97.7301
11.0794
0.84682
1207.27
59.2457
815.601
513.033
-0.661797
0.767817
62.2229
0.637562
515.208
-0.1934
0.95374
1.11124
-0.887499
-0.197463
1007.81
0.770884
8.45089
3.84209
-0.224914
728.973
1045.62
888.938
800.932
-4.57835
295.097
-11.2254
-0.683992
222.848
1230.17
-0.352109
0.721575
-12.1385
-0.139692
1251.27
242.213
1.04837
0.903681
-2.69102
1.00716
0.246397
-4.81078
312.011
1050.92
0.606144
1287.45
18.2544
921.927
0.591267
3.79813
648.471
1070.24
1114.06
0.580461
0.605901
280.771
1261.87
0.982043
-0.463605
419.635
-0.277122
-11.6093
0.46556
1014.23
1399.89
290.678
276.476
1326.91
-0.332271
2.83245
1.85232
5.20823
-0.708721
383.786
0.391846
913.741
-0.742071
12.4301
3.95189
-0.0516668
59.8507
-1.49321
-0.493704
269.1
770.769
1.47639
1308.87
54.8134
-0.401066
-0.43482
8.27076
4.78806
-0.652028
2.08049
199.371
1009.46
50.9354
1446.73
740.411
1775.5
1009.97
1.19841
87.1089
4.15165
1.26304
51.9888
4.22694
1483.87
1406.62
-12.0165
903.265
3.33696
-3.3362
235.318
52.7528
-0.609138
0.752255
9.22965
3.89603
-0.734855
23.2339
0.860112
205.058
-3.79629
2.34467
50.829
-0.872632
-0.815632
155.738
1805.04
564.212
30.0907
784.904
-12.468
90.3313
1399.4
-2.9919
3.58267
54.9242
903.838
-3.73255
930.896
-2.64409
1537.35
551.552
1358.69
-2.21605
0.171952
-0.520761
-0.758137
1.32952
965.851
125.664
0.40624
-0.530785
-3.93692
1046.87
1482.49
24.4136
0.502204
169.972
-1.03659
10.1375
-0.567524
7.05743
-0.699948
301.372
-0.767115
431.207
61.7833
1385.74
1109.06
432.451
1274.95
56.7343
-1.21154
-2.27315
121.186
0.457331
1810.4
1087.57
1080.61
18.2088
-2.65977
907.722
-0.516629
-1.07536
1041.93
-2.91182
1482.59
-0.79757
-0.573239
126.89
-3.01342
882.62
1386.93
-4.50051
1523.21
-0.760752
-3.41854
1125.41
0.222692
-2.39828
0.970662
-2.63368
999.896
27.4974
-2.14375
1509.26
-0.349937
1410.48
3.78443
-2.04807
3.9541
-0.644116
14.6492
121.674
-3.04639
-0.836554
238.392
-0.659981
903.05
-0.505821
1345.53
503.664
-0.974545
705.653
1327.76
0.208558
-1.30856
1830.14
2.81584
3.91966
-2.57097
-0.821879
130.334
39.5982
-2.22016
-2.96218
-0.84651
-0.886713
299.917
3.68403
1572.22
-4.39264
15.9721
1087.64
5.0259
3.74808
1135.67
8.24754
277.595
1417.44
-2.64168
1366.33
-0.847294
1075.47
-3.64539
1206.21
3.80158
133.502
-3.2368
-2.37452
58.0681
4.60783
-0.304357
3.79881
21.8551
-3.36746
-2.19342
-1.95967
230.102
969.942
-3.0404
1131.21
-18.6992
-3.64416
-5.0343
3.59642
47.041
40.6931
-0.782913
191.39
202.855
1432.85
-1.77527
-0.79259
58.9459
1100.83
-1.47693
1389.88
3.80286
74.729
55.1994
0.79936
-12.1499
1051.14
3.55371
-1.41117
15.5516
1278.88
-0.875336
932.394
157.254
1301.07
61.3595
-1.47157
56.7951
480.324
466.91
140.046
3.76885
-3.63589
1.66798
-3.92497
1.03488
-1.13406
-2.7498
3.97573
-0.0234512
-2.49147
11.6372
-1.33714
1402.75
3.86663
-2.11719
-0.770439
-0.0393973
3.68216
4.04128
61.8695
-1.0416
1.26634
3.74322
-1.70901
732.058
-1.94367
109.677
1.30667
5.02131
1436.23
1126.9
94.1049
1389.94
58.4762
1200.79
145.363
-0.835923
69.0198
60.4973
-4.58065
3.65659
21.3097
-1.59677
1100.07
73.4972
-1.65048
-3.20879
3.72234
0.57066
-0.941986
3.51762
5.8973
3.74461
549.623
60.669
60.7964
-4.12063
-0.326817
-0.228619
73.3463
3.68869
-0.801321
-1.51957
4.85325
-0.875391
-0.172663
-4.72966
57.3281
-4.82545
83.0985
-2.457
7.81448
61.1719
3.54355
3.18721
237.985
-2.38738
1.03992
-0.956336
51.6408
0.74152
3.67646
-0.0898435
-2.17459
-1.29987
14.9864
35.2683
714.298
1365.14
-2.01692
-3.54035
680.95
3.83078
1083.51
1.1787
-2.45599
857.181
3.57866
-1.76979
-0.914647
-1.19718
14.4457
62.6063
48.9557
23.6205
3.44274
74.919
-2.04104
-4.73726
3.64967
-2.64635
-1.05484
-1.64864
8.61338
76.6861
-0.975295
3.90183
41.4693
-4.32116
3.69434
-4.9382
3.57352
3.95879
16.3511
27.7319
-4.17667
4.3007
4.63422
3.07732
3.43259
1356.77
3.75193
-0.873638
-1.43694
0.324948
-0.430975
1054.14
40.6943
-1.66603
-0.166554
0.981421
-3.88397
3.59548
355.386
3.94014
3.8967
3.72059
1373.4
0.362333
3.49721
3.64983
-0.551766
2.96046
358.391
4.02309
-0.981354
-0.298489
-0.780202
3.43824
-1.3394
0.727062
594.59
0.7451
-1.01251
0.000448363
3.91673
239.877
-1.8181
3.88988
3.29383
-1.65706
-3.45122
2.12489
3.77471
3.78069
-1.99935
3.74352
-1.17996
579.725
2.96647
3.5944
735.622
3.78453
3.77084
-1.71393
0.0289636
-0.720594
1.19183
3.68319
3.79197
-2.11049
-4.48082
1314.86
3.50218
-5.54908
71.2166
-0.965157
4.06475
3.71876
3.06349
-2.90452
3.89053
-1.01423
3.3081
8.82214
104.315
5.38213
3.79405
1324.6
-1.53004
-1.10136
2.41179
3.24035
-4.76396
-0.978911
3.87954
-2.9967
66.7726
3.90019
-3.55524
1.00284
-0.803522
3.7029
3.50904
3.80428
2.15835
1381.7
0.582082
-1.44315
1.07784
1.58495
3.36681
75.6654
1.30055
-2.25025
3.12786
-1.93534
0.706286
6.83604
3.57281
1.29691
0.94848
13.5505
3.87245
0.892974
3.61744
-0.912412
3.08763
3.86292
3.93816
3.81645
-1.00367
-1.28707
0.864092
922.841
2.90828
-3.30194
3.51437
3.386
3.227
-1.02804
3.63482
-1.21423
-2.31387
-1.21311
-4.87214
-2.83005
3.79416
3.88249
-1.70502
-1.77314
-1.11525
-0.647938
2.97917
-4.76307
0.306211
1379.88
-1.56871
3.8221
149.277
-4.83072
3.00685
11.5773
3.57522
-1.87641
3.85789
-1.04047
3.25003
3.06151
-1.10883
3.67911
0.93663
19.6363
3.79404
0.739598
1.18522
28.094
-1.49784
3.43257
3.52149
3.80761
1.2064
1386.47
2.85975
59.8125
1.15438
3.61721
-1.91182
950.623
-1.01278
-2.11122
-0.973469
3.85803
-2.83551
822.015
-13.4687
3.79958
4.36232
-1.3632
1.08991
3.82189
1352.25
3.09092
-0.780919
2.68364
0.14616
0.968075
-1.476
3.64486
3.80272
0.805036
-1.05093
3.86925
2.82471
1400.32
3.31759
3.84506
3.44524
-1.29909
2.8702
1.36612
-5.15688
1351.16
1340.74
99.3229
-1.36324
3.79952
1354.78
-1.80136
-0.993129
0.635375
-1.67741
-1.18664
2.91352
3.82494
6.60181
3.18617
3.82332
1.23213
-2.33285
2.64896
1367.36
1.24161
6.89382
-1.54512
3.34035
2.80962
3.82148
1.23332
3.68989
-1.04007
-5.20039
12.6316
-3.05066
-1.09684
-2.32739
1.05782
-1.65116
1349.25
3.80039
3.56255
-1.62602
1.20779
3.03129
-1.13165
-1.49746
3.47764
1.12529
3.51024
4.25599
4.16626
2.61331
-3.97456
-1.05031
-1.9715
1342.59
-2.07738
1.08465
3.21605
-1.13524
-1.39761
1363.32
3.81583
3.44931
3.81876
-1.21954
3.80713
2.69452
3.86422
3.63018
41.1471
-1.70627
3.80984
0.332032
-1.34677
3.06794
-0.335445
0.966533
3.8037
-2.09925
-1.08546
3.37249
2.44219
2.85455
3.37344
-1.011
-0.93965
-1.24767
1207.38
1.72508
3.81365
1.39149
2.38193
1269.89
3.56788
1.34137
2.90371
-1.42029
3.51843
-5.5137
0.771881
3.80645
-1.01508
-1.92571
1.27217
3.59967
3.27306
3.80083
-1.17061
-0.433368
-1.69423
1.27441
-1.17113
3.6731
1.18718
3.80308
2.48718
3.79818
3.77097
-1.20016
3.46049
3.7026
-5.059
3.15528
-1.22272
-1.04645
3.71974
893.95
1.28754
1254.03
3.38851
-1.17188
-1.16856
1.48393
2.65316
1.1352
-2.04009
0.600928
0.148287
3.01478
-1.1278
1192.54
-1.47074
-1.46802
-1.44737
-1.38639
-1.63722
3.64827
-1.90184
3.77936
-1.1164
3.2964
3.79999
2.3524
2.72011
-1.51028
3.79852
1.77039
-1.51175
1.92879
-2.04346
-1.35269
3.58362
3.79865
0.964375
3.79455
2.3595
3.18564
-1.15221
-1.17
-1.77618
2.8573
1383.92
-1.27777
3.76197
-1.08973
92.4127
-5.80286
1.49553
3.05295
-1.39996
2.45964
3.52265
1.28329
5.55528
-0.693386
3.46476
1.45862
0.851054
-1.12238
2.7089
-1.24113
3.41995
3.81142
1.35336
2.90473
1.25156
3.78062
-1.61013
3.59317
2.54135
1414.39
3.40004
-0.0936287
1221.62
3.68229
29.598
3.76885
-0.913775
1373.35
-1.1743
3.32454
-4.12568
3.79419
1.11968
-1.50073
2.68589
2.0714
3.79155
-1.1119
3.23379
-1.14467
2.23173
-1.60978
673.964
1.52282
1.79511
0.332799
281.699
-1.44649
1.693
3.63824
3.12756
2.31973
0.671645
2.74269
1363.91
1347.24
3.47722
4.17856
1.05041
-1.13926
3.00234
3.41519
-1.10692
3.53212
-0.156956
-0.507946
3.74032
2.39297
3.78058
3.5662
-0.744365
3.34334
4.29402
-1.51192
-1.93562
-1.33476
1372.77
2.86254
3.77252
-1.15537
1.38758
-1.31916
-1.27461
1.35464
1.53407
3.25787
2.51976
-1.36972
-1.29956
-1.36559
648.28
-1.09408
-1.11668
1.2542
3.15739
0.885328
-0.329221
911.298
1384.95
3.61554
-1.25111
0.191375
3.7934
3.78942
3.03893
-2.14658
1362.94
2.57949
3.6719
-1.41016
-4.93016
0.536243
-0.988708
2.19712
-1.19395
1.91254
2.02344
1.20205
2.90593
-1.3644
3.75199
2.71142
-0.981068
-2.98839
2.26198
-1.34792
0.791532
3.43373
1.71802
3.65295
3.36605
1337.49
3.73784
-1.09726
-1.39566
2.37002
-1.17082
3.7803
-1.21558
3.77438
2.76075
3.29
1.64127
1.05776
3.80721
-0.664267
3.20317
2.43112
-0.99321
1.37534
3.10423
560.597
3.69677
3.49496
-1.14736
1.47286
-1.0893
1.60043
2.99056
-0.43938
-1.05573
-1.25599
2.55797
1.32825
-1.33377
-0.91402
0.98375
3.75861
3.38455
2.86421
3.56665
-1.1055
2.05698
3.8604
3.612
1.88476
0.0195568
2.1373
3.74832
0.333083
3.83749
3.8299
-3.40412
3.70729
2.6111
-1.26074
3.31158
2.24385
1.80576
3.68141
-0.858581
-1.25799
-1.2381
41.4435
1.21058
3.22868
-1.22687
-1.13548
-0.528807
0.603016
-1.20677
3.13418
3.44965
2.30321
-1.22792
-1.19805
3.77536
3.02573
-0.736103
3.82043
3.78138
3.64802
2.7276
-1.25325
2.41249
2.90445
-1.36514
982.817
1.14896
-1.18275
-1.11703
-0.308792
-1.2568
-1.25765
3.723
0.826736
1370.41
1.49865
1.66273
3.81403
-1.22993
2.46688
1000.77
3.76267
1.44966
-1.13712
2.77192
-1.24645
3.5077
3.5916
3.75484
-4.59299
-0.0503672
1.34466
1372.89
-0.321852
0.226649
0.502225
3.63069
-0.951372
3.54301
1.61557
3.3448
3.7972
2.58561
1.93859
2.13359
-1.18404
3.26793
2.0083
1358.15
1318.44
-0.490946
1382.92
2.19117
3.18254
3.67583
0.740093
-1.16826
1.29086
3.41437
1.00951
3.08748
2.28553
1402.01
-1.11227
-0.291956
2.98093
-1.18485
3.73593
-0.851848
1378.26
1376.23
-0.661221
2.63339
-1.17959
930.639
902.681
1.79287
2.33897
2.86339
1370.55
-1.10469
3.72448
3.66156
3.839
-1.14943
-1.17967
2.44674
1.73015
-1.17498
-0.389269
-0.19062
-0.56853
3.47729
0.936983
3.36652
-1.21498
0.0774045
1.16781
3.75888
3.76611
-0.989314
2.73628
1.4674
3.29263
1399.96
1.56306
3.21068
0.0103506
3.11934
0.569923
1367.83
-1.16942
1385.08
1357.98
1.41686
0.331567
3.01711
3.81039
1391.9
2.49604
3.69652
3.59406
2.90358
3.43331
-1.16571
2.02704
-1.16481
3.74398
3.63103
-1.1554
2.17893
-0.913772
2.08309
3.54957
3.73524
3.66994
0.783902
-0.202757
3.78316
0.246242
-1.14716
1.9034
-0.76794
1.30831
2.22832
0.111911
2.77973
0.485504
1393.68
1.10462
3.68515
-0.385066
-0.689773
1.6741
2.60342
-1.04491
1.84359
2.32119
1389.24
-1.12228
0.330729
-1.15402
0.705312
-1.09446
3.49285
-0.540279
-0.641186
-1.10215
3.31037
2.36937
-1.11281
-0.266228
3.6606
0.0474542
1.25247
3.90125
-0.304698
0.552729
0.256471
2.64905
1.57685
-1.33972
-0.11885
-1.10373
3.61458
0.970054
-1.07659
3.57507
1.52901
1.7275
3.70269
-1.12079
3.71457
-0.991623
-1.26545
-1.23767
1368.85
3.52826
0.137786
3.80229
1.43265
0.476967
1389.63
0.899921
2.47128
-0.467495
-1.14365
3.80365
-1.22544
0.319971
-0.648729
-1.04684
1017.81
1043.99
3.74205
1400.95
0.243368
3.74981
2.08256
-0.830028
1.98321
0.757155
-0.767834
1.38205
1240.77
1.67557
1075.38
16.2854
-0.935307
-0.5869
1410.63
-1.18392
1.93133
3.64676
2.12844
3.407
3.68325
3.33734
1.13157
3.767
1398.58
1396.04
3.26087
-1.07523
1412.44
0.685142
2.21329
1362.18
3.17701
0.540868
3.08475
-1.12428
1138.42
2.98315
2.51751
473.292
0.468659
0.0831923
1272.31
-1.14687
2.8711
1.77392
3.72627
1.06989
1.82466
-0.149925
2.25759
-0.469535
1.27442
4.00334
1.54102
3.46996
-0.325586
1386.12
0.940742
-1.05739
1.6289
3.71734
1661.36
3.78962
1415.34
2.74928
-1.12196
-1.08396
1.49498
2.34812
0.874767
3.67192
0.740902
1.21942
-1.14914
-1.06757
-0.720231
3.6998
0.213472
-1.12595
0.675931
-0.575383
-0.670358
1.39989
3.52293
1.71909
1.99336
3.56921
1.10339
-1.04107
-1.17679
-0.0883674
-1.03708
-0.808961
2.62067
-0.410151
1.85449
2.0367
3.60829
1.63491
2.39257
-0.255527
1.35061
1360.06
1.7635
-1.12932
1.90053
-0.977517
1.59285
-0.527071
1407.94
-0.856708
1416.76
-0.935301
3.69077
1.04428
1397.06
0.246789
0.552615
-1.07283
2.11927
1433.13
1.71547
0.92168
1422.69
3.75059
3.77411
3.9263
1.50841
-1.02238
-1.06725
1403.91
-1.00187
-0.98745
3.64028
1.24708
3.73418
1.60122
1.79498
0.862456
1.67656
2.15916
3.72645
-1.08185
2.49101
1.46438
1.835
-1.02569
1.91609
1414.44
3.4292
-0.649083
1384.87
3.3624
1.37296
3.28882
1.56196
-0.760328
3.20811
1.19429
0.750509
3.11938
1.67921
-0.962752
3.66547
3.02127
2.91269
1.95606
3.94286
1.64439
-0.721653
2.23891
1.74787
-0.612302
1371.79
1109.68
1141.09
2.79385
2.03478
1.08377
1.4817
-0.386888
1.78312
1438.14
-0.0777092
1.85444
1.57427
-0.231971
3.68452
3.71094
1406.46
2.66705
-0.506263
1.32596
3.75772
-0.975655
1.74357
1.65162
-0.933229
1.88954
3.48946
3.53953
1.03045
1.44016
3.58294
-0.826941
2.36763
1.71275
2.27961
1427.76
0.246662
0.490982
0.927678
3.70258
-1.03585
-0.863567
1.61996
1.53782
-1.00587
-0.912127
1.95999
-0.95553
1.80539
3.61926
-0.93132
-0.89823
2.07164
3.70272
-0.95939
2.53731
-0.923393
1371.05
1369.42
1403.3
-0.916784
1.83617
1.7148
1.55513
0.686364
1.46248
1440.98
3.73539
-1.0956
1.68762
-0.858848
-0.77966
1.89803
-0.941914
1.63241
-0.595018
1.99384
-1.19689
-1.09839
-1.08792
3.64866
1.22753
-0.933765
1.76816
-0.992639
2.14403
-0.750098
1.35354
-0.695139
1423.83
-0.905838
2.41156
3.67148
1.79495
-0.429791
3.7421
-0.847894
1.60559
1.52358
0.13797
1.84841
0.867353
1.08775
-0.83046
-0.97223
-0.141717
-0.871993
1.9281
-0.283331
-1.03183
1.69529
1390.91
1.76479
-0.668382
1.74177
-0.993856
2.06095
-0.886697
3.69731
3.68851
-0.825457
1421.01
1.18006
-0.834342
-0.867185
-0.885763
1.67293
1.42592
-0.53718
-0.850732
-0.785659
1.87455
-0.867823
1.8104
-0.850225
1435.07
1443.1
1.74465
-0.907589
-0.837069
3.72046
1655.08
1.55498
1.03315
-0.783397
-0.721124
1.63128
-0.815791
2.2561
2.29597
1.72649
1.783
1.83286
1.98843
-0.951994
-0.89045
2.1798
-0.813228
1.46326
1.69309
1.78103
3.71329
1.80218
-0.776383
1.92727
1417.97
1407.37
-0.762975
1.76684
-0.807682
-0.655806
-0.616115
-0.765722
-0.820424
1.31167
-0.792897
2.01657
-0.782944
-0.804305
1.74121
-0.830209
1.87781
-1.04777
2.09279
1.60564
-0.793948
1.52407
1.23026
1.18182
-0.767306
-1.00991
-0.762123
-0.761485
1.83974
-0.7023
1.67242
1.77603
1.81245
2.07339
2.00025
2.02658
-0.733358
3.72836
-0.736449
1.7253
1.7945
-0.754988
-0.747675
-0.775337
-0.701347
-0.694278
-0.716114
1.35527
-0.72165
1.42679
1.76476
-0.740081
-0.733444
-0.75852
1.95168
-0.730925
1.79107
1.79766
1.80532
-0.726776
-0.718765
1.89834
-0.720404
-0.746712
1.85653
-0.698183
-0.69557
1.82579
-1.05915
-0.715772
-0.712295
-0.708031
-0.712506
-0.715939
1419.79
1426.45
-0.699452
1426.4
-0.701463
1433.79
1.9066
1.88868
1.31292
1.93869
1.9608
2.10413
1.85023
1.86399
2.19366
2.15859
-0.727509
-0.725263
-0.668853
-0.71988
-0.723274
-0.725809
-0.726025
-0.705526
1.80215
1.80498
1.80701
1.81286
1.83281
1.8231
-0.718914
-0.709141
-0.360293
-0.723176
-0.727776
-0.727847
3.72238
3.7174
1383.52
576.477
1374.46
3.70849
3.70972
3.89056
3.72927
3.70434
3.71252
1347.37
-0.38295
1363.12
1383.41
3.70649
1337.4
3.82812
1037.84
1378.68
4.11041
1172.6
5.1809
1688.85
1374.27
3.92142
3.91037
945.191
968.797
192.122
937.462
789.57
1007.15
1365.3
1363.65
1338.18
1059.18
1119.26
1086.76
1281.08
1201.12
3.81458
1091.71
3.71671
3.44355
1343.65
1367.31
910.086
867.907
-0.482361
320.433
1460.03
1516.94
1023.63
1019.07
958.893
827.603
884.595
909.464
991.7
1605.39
1571.47
1372.62
735.532
733.301
-0.53236
720.397
1072.01
3.1505
927.414
356.416
1016.91
29.1399
448.934
314.453
3.88092
1138.82
787.735
364.762
15.0426
975.988
-1.55845
7.17329
5.92646
3.91355
950.731
-2.07535
972.019
284.155
1087.94
3.28518
4.48116
-2.52021
650.624
272.42
1597.64
4.14067
-1.5027
605.955
-1.7263
4.15549
710.258
4.07361
-1.84173
1037.94
3.93463
1045.96
377.35
328.484
71.8535
3.97424
1477.84
1380.57
-2.24149
)
;

boundaryField
{
    patch0
    {
        type            fixedFluxPressure;
        gradient        uniform 0;
        value           nonuniform List<scalar> 
4010
(
1.39333
1.39333
1.26401
1.26401
0.720621
0.720621
0.52972
0.52972
1.23964
1.23964
1.36836
1.36836
3.58553
3.58553
4.98592
4.98592
4.72265
4.72265
0.8054
0.8054
3.39862
3.39862
-0.717737
-0.717737
539.783
539.783
-2.12856
-2.12856
-5.67043
-5.67043
-4.18435
-4.18435
459.119
459.119
-2.18489
-2.18489
0.807542
0.807542
-2.46946
-2.46946
1039.12
1039.12
7.80828
7.80828
3.96184
3.96184
-2.41934
-2.41934
3.94868
3.94868
1009.45
1009.45
724.843
724.843
0.876655
0.876655
1.16087
1.16087
-0.541648
-0.541648
3.95226
3.95226
255.291
255.291
130.031
130.031
121.144
121.144
0.864645
0.864645
4.06975
4.06975
1042.75
1042.75
1.072
1.072
-0.83007
-0.83007
8.4158
8.4158
1125.65
1125.65
746.787
746.787
554.197
554.197
3.88359
3.88359
-0.573933
-0.573933
204.754
204.754
1.22053
1.22053
-0.0723657
-0.0723657
846.51
846.51
824.78
824.78
3.6271
3.6271
1122.79
1122.79
4.61949
4.61949
3.5745
3.5745
642.578
642.578
0.705093
0.705093
108.754
108.754
0.132782
0.132782
0.310182
0.310182
3.02453
3.02453
3.86455
3.86455
-6.20265
-6.20265
3.81788
3.81788
214.104
214.104
3.74445
3.74445
0.0617754
0.0617754
-4.59616
-4.59616
4.11155
4.11155
1.27045
1.27045
3.43749
3.43749
1134.03
1134.03
-5.71825
-5.71825
-0.145863
-0.145863
-0.628657
-0.628657
-0.65223
-0.65223
-12.7691
-12.7691
-0.0840571
-0.0840571
-0.645456
-0.645456
-0.118156
-0.118156
3.56839
3.56839
-1.17908
-1.17908
291.519
291.519
-0.313509
-0.313509
1099.78
1099.78
7.27425
7.27425
4.06789
4.06789
0.431916
0.431916
-5.47705
-5.47705
718.277
718.277
1093.51
1093.51
-4.78755
-4.78755
1055.07
1055.07
656.969
656.969
527.816
527.816
1256.2
1256.2
3.79288
3.79288
-0.050847
-0.050847
-1.28605
-1.28605
97.7301
97.7301
11.0794
11.0794
0.84682
0.84682
1207.27
1207.27
59.2457
59.2457
815.601
815.601
513.033
513.033
-0.661797
-0.661797
0.767817
0.767817
62.2229
62.2229
0.637562
0.637562
515.208
515.208
-0.1934
-0.1934
0.95374
0.95374
1.11124
1.11124
-0.887499
-0.887499
-0.197463
-0.197463
1007.81
1007.81
0.770884
0.770884
8.45089
8.45089
3.84209
3.84209
-0.224914
-0.224914
728.973
728.973
1045.62
1045.62
888.938
888.938
800.932
800.932
-4.57835
-4.57835
295.097
295.097
-11.2254
-11.2254
-0.683992
-0.683992
222.848
222.848
1230.17
1230.17
-0.352109
-0.352109
0.721575
0.721575
-12.1385
-12.1385
-0.139692
-0.139692
1251.27
1251.27
242.213
242.213
1.04837
1.04837
0.903681
0.903681
-2.69102
-2.69102
1.00716
1.00716
0.246397
0.246397
-4.81078
-4.81078
312.011
312.011
312.011
1050.92
1050.92
1050.92
0.606144
0.606144
1287.45
1287.45
18.2544
18.2544
921.927
921.927
0.591267
0.591267
3.79813
3.79813
648.471
648.471
1070.24
1070.24
1070.24
1114.06
1114.06
0.580461
0.580461
0.605901
0.605901
280.771
280.771
1261.87
1261.87
0.982043
0.982043
-0.463605
-0.463605
419.635
419.635
-0.277122
-0.277122
-11.6093
-11.6093
0.46556
0.46556
1014.23
1014.23
1399.89
1399.89
290.678
290.678
276.476
276.476
1326.91
1326.91
-0.332271
-0.332271
2.83245
2.83245
1.85232
1.85232
5.20823
5.20823
-0.708721
-0.708721
383.786
383.786
0.391846
0.391846
913.741
913.741
-0.742071
-0.742071
12.4301
12.4301
3.95189
3.95189
-0.0516668
-0.0516668
59.8507
59.8507
-1.49321
-1.49321
-0.493704
-0.493704
269.1
269.1
770.769
770.769
1.47639
1.47639
1308.87
1308.87
54.8134
54.8134
-0.401066
-0.401066
-0.43482
-0.43482
8.27076
8.27076
4.78806
4.78806
-0.652028
-0.652028
2.08049
2.08049
199.371
199.371
1009.46
1009.46
1009.46
50.9354
50.9354
1446.73
1446.73
740.411
740.411
1775.5
1775.5
1009.97
1009.97
1.19841
1.19841
87.1089
87.1089
4.15165
4.15165
1.26304
1.26304
51.9888
51.9888
4.22694
4.22694
1483.87
1483.87
1406.62
1406.62
-12.0165
-12.0165
-12.0165
903.265
903.265
3.33696
3.33696
-3.3362
-3.3362
235.318
235.318
52.7528
52.7528
-0.609138
-0.609138
0.752255
0.752255
9.22965
9.22965
3.89603
3.89603
-0.734855
-0.734855
23.2339
23.2339
0.860112
0.860112
205.058
205.058
-3.79629
-3.79629
2.34467
2.34467
50.829
50.829
-0.872632
-0.872632
-0.815632
-0.815632
155.738
155.738
1805.04
1805.04
564.212
564.212
30.0907
30.0907
784.904
784.904
-12.468
-12.468
90.3313
90.3313
1399.4
1399.4
1399.4
-2.9919
-2.9919
3.58267
3.58267
54.9242
54.9242
903.838
903.838
903.838
-3.73255
-3.73255
930.896
930.896
-2.64409
-2.64409
1537.35
1537.35
551.552
551.552
1358.69
1358.69
-2.21605
-2.21605
0.171952
0.171952
-0.520761
-0.520761
-0.758137
-0.758137
1.32952
1.32952
965.851
965.851
125.664
125.664
0.40624
0.40624
-0.530785
-0.530785
-3.93692
-3.93692
1046.87
1046.87
1482.49
1482.49
24.4136
24.4136
0.502204
0.502204
169.972
169.972
-1.03659
-1.03659
10.1375
10.1375
-0.567524
-0.567524
7.05743
7.05743
-0.699948
-0.699948
301.372
301.372
-0.767115
-0.767115
431.207
431.207
61.7833
61.7833
1385.74
1385.74
1109.06
1109.06
432.451
432.451
1274.95
1274.95
56.7343
56.7343
-1.21154
-1.21154
-2.27315
-2.27315
121.186
121.186
0.457331
0.457331
1810.4
1810.4
1087.57
1087.57
1080.61
1080.61
1080.61
18.2088
18.2088
-2.65977
-2.65977
907.722
907.722
-0.516629
-0.516629
-1.07536
-1.07536
1041.93
1041.93
-2.91182
-2.91182
1482.59
1482.59
-0.79757
-0.79757
-0.573239
-0.573239
126.89
126.89
-3.01342
-3.01342
882.62
882.62
1386.93
1386.93
-4.50051
-4.50051
1523.21
1523.21
-0.760752
-0.760752
-3.41854
-3.41854
1125.41
1125.41
1125.41
0.222692
0.222692
-2.39828
-2.39828
0.970662
0.970662
-2.63368
-2.63368
999.896
999.896
27.4974
27.4974
-2.14375
-2.14375
1509.26
1509.26
-0.349937
-0.349937
1410.48
1410.48
3.78443
3.78443
-2.04807
-2.04807
3.9541
3.9541
-0.644116
-0.644116
14.6492
14.6492
121.674
121.674
-3.04639
-3.04639
-0.836554
-0.836554
238.392
238.392
-0.659981
-0.659981
903.05
903.05
-0.505821
-0.505821
1345.53
1345.53
503.664
503.664
-0.974545
-0.974545
705.653
705.653
1327.76
1327.76
0.208558
0.208558
-1.30856
-1.30856
1830.14
1830.14
2.81584
2.81584
3.91966
3.91966
-2.57097
-2.57097
-0.821879
-0.821879
130.334
130.334
39.5982
39.5982
-2.22016
-2.22016
-2.96218
-2.96218
-0.84651
-0.84651
-0.886713
-0.886713
299.917
299.917
3.68403
3.68403
1572.22
1572.22
-4.39264
-4.39264
15.9721
15.9721
1087.64
1087.64
5.0259
5.0259
3.74808
3.74808
1135.67
1135.67
8.24754
8.24754
277.595
277.595
1417.44
1417.44
-2.64168
-2.64168
1366.33
1366.33
-0.847294
-0.847294
1075.47
1075.47
-3.64539
-3.64539
1206.21
1206.21
3.80158
3.80158
133.502
133.502
-3.2368
-3.2368
-2.37452
-2.37452
58.0681
58.0681
4.60783
4.60783
-0.304357
-0.304357
3.79881
3.79881
21.8551
21.8551
-3.36746
-3.36746
-2.19342
-2.19342
-1.95967
-1.95967
230.102
230.102
969.942
969.942
-3.0404
-3.0404
1131.21
1131.21
-18.6992
-18.6992
-3.64416
-3.64416
-5.0343
-5.0343
3.59642
3.59642
47.041
47.041
40.6931
40.6931
-0.782913
-0.782913
191.39
191.39
202.855
202.855
1432.85
1432.85
-1.77527
-1.77527
-0.79259
-0.79259
58.9459
58.9459
1100.83
1100.83
-1.47693
-1.47693
1389.88
1389.88
3.80286
3.80286
74.729
74.729
55.1994
55.1994
0.79936
0.79936
-12.1499
-12.1499
-12.1499
1051.14
1051.14
3.55371
3.55371
-1.41117
-1.41117
15.5516
15.5516
1278.88
1278.88
-0.875336
-0.875336
932.394
932.394
157.254
157.254
1301.07
1301.07
1301.07
61.3595
61.3595
-1.47157
-1.47157
56.7951
56.7951
480.324
480.324
466.91
466.91
140.046
140.046
3.76885
3.76885
-3.63589
-3.63589
1.66798
1.66798
-3.92497
-3.92497
1.03488
1.03488
-1.13406
-1.13406
-2.7498
-2.7498
3.97573
3.97573
-0.0234512
-0.0234512
-2.49147
-2.49147
11.6372
11.6372
-1.33714
-1.33714
1402.75
1402.75
3.86663
3.86663
-2.11719
-2.11719
-0.770439
-0.770439
-0.0393973
-0.0393973
3.68216
3.68216
4.04128
4.04128
61.8695
61.8695
-1.0416
-1.0416
1.26634
1.26634
3.74322
3.74322
-1.70901
-1.70901
732.058
732.058
-1.94367
-1.94367
109.677
109.677
1.30667
1.30667
5.02131
5.02131
1436.23
1436.23
1126.9
1126.9
94.1049
94.1049
1389.94
1389.94
58.4762
58.4762
1200.79
1200.79
1200.79
145.363
145.363
-0.835923
-0.835923
69.0198
69.0198
60.4973
60.4973
-4.58065
-4.58065
3.65659
3.65659
21.3097
21.3097
-1.59677
-1.59677
1100.07
1100.07
73.4972
73.4972
-1.65048
-1.65048
-3.20879
-3.20879
3.72234
3.72234
0.57066
0.57066
-0.941986
-0.941986
3.51762
3.51762
5.8973
5.8973
3.74461
3.74461
549.623
549.623
60.669
60.669
60.7964
60.7964
-4.12063
-4.12063
-0.326817
-0.326817
-0.228619
-0.228619
73.3463
73.3463
3.68869
3.68869
-0.801321
-0.801321
-1.51957
-1.51957
4.85325
4.85325
-0.875391
-0.875391
-0.172663
-0.172663
-4.72966
-4.72966
57.3281
57.3281
-4.82545
-4.82545
83.0985
83.0985
-2.457
-2.457
7.81448
7.81448
61.1719
61.1719
3.54355
3.54355
3.18721
3.18721
237.985
237.985
-2.38738
-2.38738
1.03992
1.03992
-0.956336
-0.956336
51.6408
51.6408
0.74152
0.74152
3.67646
3.67646
-0.0898435
-0.0898435
-2.17459
-2.17459
-1.29987
-1.29987
14.9864
14.9864
35.2683
35.2683
714.298
714.298
1365.14
1365.14
-2.01692
-2.01692
-3.54035
-3.54035
680.95
680.95
3.83078
3.83078
1083.51
1083.51
1.1787
1.1787
-2.45599
-2.45599
857.181
857.181
3.57866
3.57866
-1.76979
-1.76979
-0.914647
-0.914647
-1.19718
-1.19718
14.4457
14.4457
62.6063
62.6063
48.9557
48.9557
23.6205
23.6205
3.44274
3.44274
74.919
74.919
-2.04104
-2.04104
-4.73726
-4.73726
3.64967
3.64967
-2.64635
-2.64635
-1.05484
-1.05484
-1.64864
-1.64864
8.61338
8.61338
76.6861
76.6861
-0.975295
-0.975295
3.90183
3.90183
41.4693
41.4693
-4.32116
-4.32116
3.69434
3.69434
-4.9382
-4.9382
3.57352
3.57352
3.95879
3.95879
16.3511
16.3511
27.7319
27.7319
-4.17667
-4.17667
4.3007
4.3007
4.63422
4.63422
3.07732
3.07732
3.43259
3.43259
1356.77
1356.77
3.75193
3.75193
-0.873638
-0.873638
-1.43694
-1.43694
0.324948
0.324948
-0.430975
-0.430975
1054.14
1054.14
40.6943
40.6943
-1.66603
-1.66603
-0.166554
-0.166554
0.981421
0.981421
-3.88397
-3.88397
3.59548
3.59548
355.386
355.386
3.94014
3.94014
3.8967
3.8967
3.72059
3.72059
1373.4
1373.4
0.362333
0.362333
3.49721
3.49721
3.64983
3.64983
-0.551766
-0.551766
2.96046
2.96046
358.391
358.391
4.02309
4.02309
-0.981354
-0.981354
-0.298489
-0.298489
-0.780202
-0.780202
3.43824
3.43824
-1.3394
-1.3394
0.727062
0.727062
594.59
594.59
0.7451
0.7451
-1.01251
-1.01251
0.000448363
0.000448363
3.91673
3.91673
239.877
239.877
-1.8181
-1.8181
3.88988
3.88988
3.29383
3.29383
-1.65706
-1.65706
-3.45122
-3.45122
2.12489
2.12489
3.77471
3.77471
3.78069
3.78069
-1.99935
-1.99935
3.74352
3.74352
-1.17996
-1.17996
579.725
579.725
2.96647
2.96647
3.5944
3.5944
735.622
735.622
3.78453
3.78453
3.77084
3.77084
-1.71393
-1.71393
0.0289636
0.0289636
-0.720594
-0.720594
1.19183
1.19183
3.68319
3.68319
3.79197
3.79197
-2.11049
-2.11049
-4.48082
-4.48082
1314.86
1314.86
3.50218
3.50218
-5.54908
-5.54908
71.2166
71.2166
-0.965157
-0.965157
4.06475
4.06475
3.71876
3.71876
3.06349
3.06349
-2.90452
-2.90452
3.89053
3.89053
-1.01423
-1.01423
3.3081
3.3081
8.82214
8.82214
104.315
104.315
5.38213
5.38213
3.79405
3.79405
1324.6
1324.6
-1.53004
-1.53004
-1.10136
-1.10136
2.41179
2.41179
3.24035
3.24035
-4.76396
-4.76396
-0.978911
-0.978911
3.87954
3.87954
-2.9967
-2.9967
66.7726
66.7726
3.90019
3.90019
-3.55524
-3.55524
1.00284
1.00284
-0.803522
-0.803522
3.7029
3.7029
3.50904
3.50904
3.80428
3.80428
2.15835
2.15835
1381.7
1381.7
0.582082
0.582082
-1.44315
-1.44315
1.07784
1.07784
1.58495
1.58495
3.36681
3.36681
75.6654
75.6654
1.30055
1.30055
-2.25025
-2.25025
3.12786
3.12786
-1.93534
-1.93534
0.706286
0.706286
6.83604
6.83604
3.57281
3.57281
1.29691
1.29691
0.94848
0.94848
13.5505
13.5505
3.87245
3.87245
0.892974
0.892974
3.61744
3.61744
-0.912412
-0.912412
3.08763
3.08763
3.86292
3.86292
3.93816
3.93816
3.81645
3.81645
-1.00367
-1.00367
-1.28707
-1.28707
0.864092
0.864092
922.841
922.841
2.90828
2.90828
-3.30194
-3.30194
3.51437
3.51437
3.386
3.386
3.227
3.227
-1.02804
-1.02804
3.63482
3.63482
-1.21423
-1.21423
-2.31387
-2.31387
-1.21311
-1.21311
-4.87214
-4.87214
-2.83005
-2.83005
3.79416
3.79416
3.88249
3.88249
-1.70502
-1.70502
-1.77314
-1.77314
-1.11525
-1.11525
-0.647938
-0.647938
2.97917
2.97917
-4.76307
-4.76307
0.306211
0.306211
1379.88
1379.88
-1.56871
-1.56871
3.8221
3.8221
149.277
149.277
-4.83072
-4.83072
3.00685
3.00685
11.5773
11.5773
3.57522
3.57522
-1.87641
-1.87641
3.85789
3.85789
-1.04047
-1.04047
3.25003
3.25003
3.06151
3.06151
-1.10883
-1.10883
3.67911
3.67911
0.93663
0.93663
19.6363
19.6363
3.79404
3.79404
0.739598
0.739598
1.18522
1.18522
28.094
28.094
-1.49784
-1.49784
3.43257
3.43257
3.52149
3.52149
3.80761
3.80761
1.2064
1.2064
1386.47
1386.47
2.85975
2.85975
59.8125
59.8125
1.15438
1.15438
3.61721
3.61721
-1.91182
-1.91182
950.623
950.623
-1.01278
-1.01278
-2.11122
-2.11122
-0.973469
-0.973469
3.85803
3.85803
-2.83551
-2.83551
822.015
822.015
-13.4687
-13.4687
-13.4687
3.79958
3.79958
4.36232
4.36232
-1.3632
-1.3632
1.08991
1.08991
3.82189
3.82189
1352.25
1352.25
3.09092
3.09092
-0.780919
-0.780919
2.68364
2.68364
0.14616
0.14616
0.968075
0.968075
-1.476
-1.476
3.64486
3.64486
3.80272
3.80272
0.805036
0.805036
-1.05093
-1.05093
3.86925
3.86925
2.82471
2.82471
1400.32
1400.32
3.31759
3.31759
3.84506
3.84506
3.44524
3.44524
-1.29909
-1.29909
2.8702
2.8702
1.36612
1.36612
-5.15688
-5.15688
1351.16
1351.16
1340.74
1340.74
99.3229
99.3229
-1.36324
-1.36324
3.79952
3.79952
1354.78
1354.78
-1.80136
-1.80136
-0.993129
-0.993129
0.635375
0.635375
-1.67741
-1.67741
-1.18664