/*--------------------------------*- C++ -*----------------------------------*\
  =========                 |
  \\      /  F ield         | OpenFOAM: The Open Source CFD Toolbox
   \\    /   O peration     | Website:  https://openfoam.org
    \\  /    A nd           | Version:  8
     \\/     M anipulation  |
\*---------------------------------------------------------------------------*/
FoamFile
{
    version     2.0;
    format      ascii;
    class       surfaceScalarField;
    location    "0.35";
    object      phi;
}
// * * * * * * * * * * * * * * * * * * * * * * * * * * * * * * * * * * * * * //

dimensions      [0 3 -1 0 0 0 0];

internalField   nonuniform List<scalar> 
2805
(
0.000159097
-0.000413212
0.000254117
0.000715454
-0.000556356
-0.00142122
-4.84537e-05
0.00146967
-0.000617127
-0.000804091
0.000284829
0.000430624
-0.00222779
0.00161066
-0.00121735
-0.00101044
-0.00252114
0.00130379
-0.00169093
-0.000830212
-0.000790939
0.000742485
-0.00253809
0.000847157
-0.00128235
-0.00125574
0.00244903
-0.0012757
-0.00117334
-0.00260187
0.00131952
-0.000306653
0.00122754
-0.000920887
0.000168881
-0.000475534
0.00125905
0.00118998
-0.00149868
-0.00110319
-0.000641945
0.000228733
-0.00247745
0.000978771
0.00149592
0.000881607
-0.00237753
0.00182914
-0.00124954
-0.000579607
0.00035569
0.00123317
-0.00158886
-0.00138518
-0.00109227
0.00070086
0.00112828
-0.000876119
-0.000460452
0.00133657
0.000273137
-0.00114926
0.000215805
-0.00035927
0.000143465
6.54192e-05
0.00058424
-0.000649659
-0.000355647
-0.00103696
0.0013926
-0.000745262
0.00110095
-0.000655939
0.0013568
-0.000452329
0.000654426
-0.000202098
0.0020231
-0.000764047
-0.000297327
0.000513132
0.000685326
0.00054784
0.000640893
-0.00129683
-0.000568153
0.000633572
0.000431467
-0.000787115
0.00127784
0.00124863
-0.000607734
0.00207658
-0.000580661
0.000788175
-2.94087e-05
-0.00155945
0.000126337
0.000567449
-0.000693785
0.000149615
0.000422858
-0.000572473
0.000582594
-0.00053549
-4.7104e-05
0.000621512
0.000528625
-0.00115014
0.00108165
-0.00213429
0.00105263
-0.00187423
0.00116417
0.00071006
0.00103521
-7.6136e-05
-0.000959077
0.000800888
-0.00147463
0.000225096
-0.000387407
0.00142262
0.00017269
-0.000538349
0.000365658
-0.00108827
-5.93512e-05
0.000747848
-0.000362572
0.00111042
-0.0023469
0.00136464
0.000982263
-0.000287606
0.000258198
0.00189352
-0.00172464
0.000525999
-0.000813605
-0.000807974
0.000498678
0.000309295
0.000522495
-0.000909901
-0.000538122
0.00106675
-0.003357
-0.00013048
0.00348748
0.00104803
-0.000362704
0.000733854
-0.000964804
0.000888668
-0.000337045
0.000297176
3.98687e-05
-0.000215032
0.00210855
-0.000376506
-0.00115841
0.000121452
-0.000782674
-0.000375735
-0.000501606
-8.77432e-05
0.000589349
0.000348756
-0.000886878
-0.00115025
0.000367581
-0.00101604
-0.000134093
-0.000438805
0.000998948
-0.00168591
0.000686966
0.00113545
-0.000862318
-0.000524747
0.000285987
0.00023876
0.00127455
-0.000392947
-0.000198212
0.000414976
0.000633054
-0.000721842
0.00160235
-0.000374809
-0.000792579
0.000179941
-0.000516986
9.79945e-05
-0.003455
0.000137688
0.000997767
0.000595548
0.000957026
-0.000635709
-0.000321317
-0.000595657
0.000775598
-0.000302797
0.000825292
-0.000622334
0.000971091
0.00152334
-0.00052439
-0.00265032
0.000303416
-7.74343e-05
-0.000424172
-0.0010246
0.00159118
-0.000566581
0.000678896
-0.00118225
-0.00146806
0.000960435
-0.000822748
0.000491314
0.000465712
-0.00144054
0.000970677
0.000469866
-0.000285179
-0.00111435
0.00139953
0.000457211
3.41027e-05
0.00127418
9.04578e-05
-4.01607e-05
-0.00123876
0.000616424
0.00065879
7.50641e-05
-0.000283324
0.000857849
-0.00118631
0.000328462
-0.000405592
-0.000610452
0.000494965
-0.000887912
0.000445072
0.00108051
-0.00155605
0.000183606
2.25041e-05
-0.00020611
-0.00129247
0.000468617
-0.000666829
-0.002746
0.00262024
0.000125765
-0.00121336
-2.20203e-05
-0.00318582
0.00305534
-0.000258043
0.00107302
-0.000814981
6.58986e-05
-0.000153642
6.30556e-05
-0.00121331
0.000618629
-0.000820294
0.00221797
-0.00139767
-0.000541164
-0.000697594
0.001306
-0.000521673
0.000376196
0.000145477
0.000333102
0.00147978
0.00133749
-0.000871781
0.00103928
-0.000405711
0.000609367
-0.00199455
0.000229807
0.000344905
-0.00340085
0.000807986
-0.000807986
-0.000529953
0.000529953
-0.00158629
0.00203136
-0.00137162
0.000551326
0.000199168
0.000219742
0.000655498
0.000618681
0.000374818
-0.000191211
0.000173385
0.000112602
-0.002746
0.000435872
-0.000369974
-0.000707337
0.00201334
2.43708e-05
0.000535604
0.00053742
0.00234805
0.000272186
-0.000972292
-0.00106313
0.000521968
-0.000280864
0.000202366
7.8498e-05
-0.000916449
-0.000269861
6.76763e-05
0.00132402
-0.00279617
5.01684e-05
-0.000373116
0.000297634
7.54824e-05
0.000522512
0.00161143
-0.00107583
0.000781101
0.00156695
-0.000616329
-0.000676141
-0.000253152
0.000219035
0.000435391
-0.00178887
0.00181324
-0.000956798
-0.000483745
0.00126385
-0.000743361
0.000782137
-0.000145756
-0.000636381
0.000476155
4.79756e-05
-8.10696e-06
0.000373138
0.000174702
-0.00108755
0.00241157
0.00107674
-0.000411485
-0.000665254
-0.00253861
0.00361912
-0.00108265
0.000651616
0.000431034
0.000775197
0.000836233
-0.000733257
-0.00140103
0.000412891
-0.000948381
0.000161464
0.000274409
-0.000675126
0.00163989
-0.000964768
-0.00131392
-0.000773069
0.000503208
0.000429051
-0.000229883
-0.000485076
-0.00048633
-0.000576802
0.000725691
0.00210217
-0.00132697
-0.00279617
-0.00105755
0.00203407
-0.000976517
0.000481218
0.000300919
0.000754811
-0.000273594
0.00110083
-0.000799909
-0.000732051
0.00151295
-0.000990434
0.00132806
-0.00181314
0.000401612
-0.00120127
0.00192696
0.00093182
-0.000770356
-0.000150232
0.000376197
-0.00284646
5.02923e-05
0.00114637
-0.00035974
-0.00171155
0.00207129
0.000975023
0.00112715
0.000582343
0.00103373
0.000596716
5.87827e-05
0.000283295
0.000126794
-0.000953904
-0.000259406
0.000820715
-4.21042e-05
0.00043712
-0.00234385
0.00198411
-0.000965981
0.00125859
0.000775482
-0.00105337
0.000567041
0.000391742
-0.00104381
0.000652069
0.0024914
-0.00151638
0.000463732
0.000637097
-0.000392872
-0.000145477
0.00394111
-0.00207036
-0.00187075
0.000343326
0.00232234
-0.00106376
0.000202366
0.000822897
-0.00253445
-0.00152001
0.0016468
0.00199269
-0.00155557
-0.00284646
0.00182151
-0.00436011
0.000933564
-0.000531952
-0.00122652
0.00204942
0.00024891
0.00068291
0.000645947
-7.8498e-05
0.000625366
0.00140067
-0.00236665
0.000227729
-0.000715069
-0.000565056
0.000162039
-0.00190006
-0.000946405
0.00118619
0.00130521
0.000155941
-0.000666508
-0.000647415
-0.00105866
-0.00128519
0.000565441
0.00077113
-0.00050066
0.00109854
-0.000597882
0.000547122
-0.000119341
0.00138335
0.000665719
0.000715542
0.000548309
0.000318663
0.000763237
0.000593562
0.000381099
-0.000756834
0.00109545
-0.00167611
0.000436304
-0.000920049
0.000433334
0.000760882
0.00127249
-0.000808758
-0.000199731
-0.000137082
-0.000512785
0.00103193
-0.000519143
0.00167823
0.00226288
-0.000478341
-0.00120757
-0.00104713
0.00140741
0.000914932
0.00216928
0.000980423
-0.000263434
-0.00190006
-0.00197236
0.00323603
-0.00204984
0.000108724
-0.000775552
-0.000438351
-0.000615019
-0.00221797
0.00031791
-0.00209184
0.0019725
0.000432904
0.0028948
-0.00222908
-0.000352394
-0.00043472
0.00264535
-0.00123794
-0.00168121
-0.00085324
-0.000177852
-0.00015493
0.000452564
-0.00274703
0.00168837
0.00138716
-0.00113825
-0.0005176
-0.0029664
0.000613707
0.000979165
-0.00220569
0.000227603
0.000369113
0.00193006
-0.00297719
-0.000449071
0.00103055
-0.000581483
0.00249695
-0.00140151
-0.000843609
0.00182277
0.000585757
-0.00073589
-0.00014499
3.17543e-05
0.000343063
0.00187761
0.00135842
0.000107922
0.0012928
-0.00140073
-0.00124331
0.00132361
0.000718101
-0.000161783
0.00137842
0.00184525
2.87057e-05
0.000591955
0.000680536
0.00302528
0.000246681
-0.000401611
-0.00042282
-0.000726436
0.000604176
-0.0011565
0.000552322
0.00101525
0.000582858
-0.000576362
-0.00154211
0.00110376
0.000448471
0.000942357
0.00254513
0.000820261
-0.00071234
-0.00199842
0.000535848
-0.000795253
0.00156346
0.00108189
0.00266049
0.00370514
-0.00232671
0.00397518
-0.00209756
0.000796201
-0.000439634
0.000128731
-0.000278677
0.00140696
0.000465608
0.000921556
-0.000495049
-0.00225198
0.00125641
0.000852146
0.00234307
0.000712262
0.000341877
-0.000310123
0.000192702
0.000595473
-0.000314968
0.00039045
0.00167046
-0.0025237
0.00133479
0.000507695
-0.00107275
-0.000887252
0.00187612
-0.000988869
-0.00222617
0.00206438
0.00129358
-0.000707824
-0.000804371
0.000501574
0.00288071
-0.00131725
-0.00266897
-0.000297431
-0.000535224
0.00147555
0.000787334
0.000955938
0.00272316
0.00101413
0.00145959
-0.000867635
0.00258021
0.00139496
0.0016553
0.00107387
-0.00191748
0.00088048
-0.000713974
-0.00268107
0.00450257
0.000306457
0.00069131
8.10672e-06
-3.0127e-05
-0.00316402
-0.00317287
-0.000486917
0.00108048
-2.80476e-05
0.00237112
0.00122836
-0.000412354
0.000496104
0.00218569
0.00112901
-0.000562643
0.00163651
-0.000220986
0.00241791
0.000871898
0.000396445
0.00026175
0.000558512
0.00127159
0.00189362
0.000651508
0.00433449
-0.00267918
0.000126378
0.000644752
0.000920046
-0.000733867
-0.000808247
-0.0007039
-0.000699907
-0.000671713
0.000478997
-0.000996597
0.00147503
-0.00100942
0.000112017
0.000781101
0.00151515
0.00114534
0.000712108
-0.00151522
0.000803112
0.00260588
0.000721851
0.00168807
0.00119264
0.00045338
-0.000191631
6.90878e-05
-0.00229526
0.00204325
0.00439357
-0.00181336
0.000659008
-0.000431405
0.000788088
-0.00126643
0.00239388
-0.00269131
5.57766e-05
-0.000544443
0.000488666
4.0062e-05
-0.000129823
0.000761029
0.00069856
-0.000495464
0.00019654
4.31159e-05
0.000912823
0.00158308
-0.0021183
-0.000656482
-0.000586828
0.000119286
-0.000554005
6.78909e-05
0.000946235
0.000183208
0.000532333
0.00230249
-0.00036841
0.000638767
0.000410274
-0.000158119
-0.000252155
0.00223692
0.000874518
-0.000334397
0.0022866
-0.00150219
-0.000784409
-0.000635933
0.00112359
0.000531125
0.000275165
0.000596734
0.00120917
0.000347961
0.000104604
0.00252682
-0.000155695
0.003053
-0.00136494
-0.000316256
0.000690103
0.00184428
0.000573627
0.000446248
0.000626403
0.00256759
-0.00188685
0.00115299
0.000919917
0.00160504
0.00114274
-0.00170538
-0.00368505
0.000521035
0.000272042
0.000138232
-0.000180635
0.001409
0.00074071
-0.00118034
-0.00022778
0.00114783
0.00232349
-0.000999879
8.08303e-05
0.000520702
0.000954326
0.00249579
0.00252696
7.89241e-05
0.00288518
0.00150839
0.00133657
-0.000869983
2.3289e-05
0.000698562
0.000434014
1.93673e-05
0.000879799
-0.000851093
-0.000372485
0.00184878
-0.00108775
-0.000332042
-0.000929036
0.00055253
-0.00178393
0.00185301
0.000648662
0.00187816
-0.0027704
0.0020665
-0.00191093
0.00414785
0.00176402
0.00237126
0.000718455
0.000936112
0.000417027
0.000457491
0.00146465
-0.00414572
0.000193306
0.000445461
-0.0012715
0.000885095
0.00072564
0.000275894
-0.000970374
0.00207629
-0.00220612
0.000937902
-0.00143337
0.000468026
0.0017014
0.000601085
0.00101376
-0.000211724
0.000458405
-4.20102e-05
-0.0032388
0.00122968
-0.000207165
0.00133076
0.00138652
-0.000267618
0.000926626
-0.00309289
0.000401576
0.000193054
0.000726862
0.00038221
0.000244193
0.00149927
-0.00183367
0.000720875
-0.00113323
-0.000328528
0.00227503
0.00150383
0.00233196
0.000163828
0.00241088
0.000940661
0.000878599
-0.000574362
-0.0013614
0.000389263
-0.000251031
-0.00257185
0.00091825
-0.00128666
-0.000206108
0.0028988
0.00196049
0.000766836
-0.000987822
-0.000400487
0.000658684
0.000891617
0.00436274
-0.00147756
-0.000278449
0.000359279
-9.92642e-05
-0.00168466
0.000401578
0.00013039
0.000284586
0.00168206
-0.00116135
-0.000773509
0.00314477
0.00233449
0.000952773
0.000896003
-0.000337422
0.00127353
0.00024217
0.000476285
0.000300846
-0.000512569
-0.00104806
0.000609254
-0.000275722
0.00119155
-0.00156404
0.000787735
-6.20947e-05
-0.000462383
0.000581669
-0.000181378
0.000680056
-0.00110038
0.00297854
-0.00083438
-0.00105247
0.00124523
0.00122339
0.000540628
-0.00229362
0.000450314
-0.000174419
0.000360568
0.000653193
0.000186167
-2.7349e-05
0.000285955
-0.00124503
0.000172195
0.000286209
-0.00148304
0.000993336
0.000110815
-4.16249e-05
0.00182448
0.000521861
8.86119e-05
-0.000262095
-0.000448406
0.000417416
0.000486362
-0.000241813
0.000504243
0.00108743
0.00214967
0.000125355
0.000781315
-0.00109757
0.00305595
-0.000645065
-0.000262627
0.000437329
0.000377104
0.00183933
-0.00188134
0.000267176
-0.000244672
0.000178371
0.00076229
-0.0022562
0.00272423
0.00149002
0.0023135
-0.000957514
4.76119e-05
-0.000389375
-0.0025187
0.000312578
-7.10622e-05
0.000412939
0.00107054
-0.00139907
-0.000272881
-0.000285507
0.00117712
0.000199281
4.18441e-05
0.000719038
-0.000671559
-0.000635777
5.66556e-06
0.00228244
-0.00133495
0.000748118
0.00204439
0.000313402
4.58772e-05
-0.000689693
-0.000114678
-0.00211712
0.00287743
0.0014853
-0.000710141
0.000528763
0.00046903
-6.74526e-05
0.00150308
0.00109817
0.000910311
-0.00124235
-0.00085962
0.000948232
-0.000338391
0.000267329
0.000988027
0.00126377
2.19594e-05
-0.000715091
-0.00055641
0.000654656
0.00196602
0.00101252
0.00166086
0.000579172
0.00110288
0.000708913
-0.000661301
0.000493018
0.000187038
0.00144124
-0.00164734
-0.000216116
-0.00127862
-3.75072e-05
0.00103084
-0.00184904
0.00418353
-8.42573e-05
-0.000578867
0.000551518
-0.000290186
0.00229081
-0.000214752
0.00040092
-0.00409516
0.00273376
0.000643267
0.000601959
-0.000682878
3.27817e-06
0.000294611
1.92196e-05
0.00129646
0.000520156
-0.000301341
0.000239247
-0.000122801
0.000909742
0.0015977
0.000226772
0.00043702
4.93422e-05
-0.000201331
0.00128876
0.000972752
-0.00124037
-0.00347391
0.000902056
0.000724783
-0.00179211
0.00325675
0.000202902
0.000353062
-0.000242247
0.00172306
0.00316925
-0.000141538
0.00270574
-0.000392242
-0.000266326
0.000312203
-0.000222918
0.000975792
5.24233e-05
0.000243995
-0.000896632
0.000507257
-0.000206507
0.00124425
-0.00148607
0.00206068
-0.000157611
-0.000247625
0.00123565
-0.00137093
0.000397457
-0.000198176
0.000369567
0.000430749
0.000223907
0.00106478
-0.00132688
0.00181348
-0.000928388
-0.00221014
-0.000154819
-0.000359022
-0.00454483
0.00225121
-0.000987544
0.000351767
-0.00044789
0.000469849
-0.00212886
0.000247521
-0.00181629
-0.00251177
0.00352429
0.00397314
-0.00192875
0.000783218
0.00270598
0.00367631
-0.00139387
0.000682319
-0.000232701
-0.000449618
0.00167639
-0.00167073
-0.000345114
0.000203274
-0.000577565
-0.000711577
-0.000162535
0.00145899
8.67357e-05
-0.00275952
0.000642404
-4.69702e-05
0.000934926
-0.00121065
0.000480092
0.000312469
0.000412314
0.00118682
-0.00140293
-0.000284953
0.000288231
0.000321708
0.000280251
0.00165494
-0.000881804
0.000210246
0.000560954
0.000922298
-1.25563e-05
0.00112623
2.9048e-05
0.000425703
-0.000131091
0.00015521
-0.000480287
0.00114907
0.000353072
0.000329247
-0.000477604
0.0014534
0.00195172
-0.000228656
0.000277596
3.46075e-05
-0.00185747
0.000560013
-0.00045129
-0.000162645
-0.00342466
0.00313447
-0.000177572
-0.00063104
0.000489503
-0.00181107
3.01271e-05
-0.000207979
-0.000757931
9.66307e-05
0.00181101
-0.00123183
0.00141405
-0.00153685
0.00155947
0.000395486
-0.000691136
0.000208572
0.000482564
0.000536376
0.00146136
0.000758047
0.00174756
-0.000228503
0.00314541
0.000378884
-7.3574e-06
-0.000530037
0.00295592
-0.000895241
-0.000140059
-0.000479539
0.00023819
0.000241349
-0.00196732
-0.00039045
0.000495054
0.000423511
-5.39438e-05
-0.000161191
0.000227527
-7.20181e-05
0.000182775
0.000600443
-0.000380196
0.00135295
0.00149399
0.000198117
-0.000712409
0.000514291
0.001852
-0.000396066
0.000977735
-0.000547686
5.59472e-05
-0.000755854
-0.000279248
0.00146409
-0.00104668
0.00156205
0.00122859
-0.0030207
0.00130203
-0.00145685
0.000595089
-0.000464598
0.000417628
-0.000650788
0.00177701
0.000426041
5.40506e-05
-0.00076771
0.000422596
-0.00096934
0.00124959
-0.00405955
0.00268862
0.000489655
-0.000218087
0.000504296
0.00142264
-0.000273566
0.000493586
0.00186935
-0.00162183
0.000292419
0.000802609
-0.000278207
0.00091407
-5.0161e-05
0.00107027
-0.00129318
-0.00127243
0.00397841
-7.52223e-06
0.00268066
0.00103208
-0.00111634
-0.0018945
0.00101483
-0.000453872
0.00229312
-0.00165072
0.000487884
-6.91126e-05
0.000274136
-0.000239528
0.000476837
0.00119398
0.000367862
0.000168514
-0.000100902
0.000198621
-0.00102331
-0.000537623
0.00156093
0.000786323
0.000307089
-0.000220353
0.000951386
2.27601e-05
0.000735287
-0.00202545
0.000542405
0.0011837
-0.00136127
0.00104661
-0.000183646
-0.000925078
0.00219414
-0.00063467
0.000372097
0.000931825
-0.00113833
0.00157301
-0.00154396
0.000269797
0.000479541
-0.00059422
0.000338601
-0.000183391
-0.000559379
0.000398188
-0.00242268
0.00280156
-0.000789887
0.0003096
0.000623203
5.96534e-05
-0.000265764
-0.0002548
0.000247442
0.0033373
-0.00267046
0.000812996
-0.000367291
-0.00161772
0.00336529
3.61557e-05
0.000421912
0.00364841
-0.00218705
0.0012989
-0.00014175
-0.00395389
0.00214282
0.0012776
-0.00141766
0.000356052
-0.000128525
-0.00105914
0.00154879
0.000302063
0.000293027
0.000717879
-0.000140383
-0.00270605
0.000283373
0.00140903
-0.00148105
0.00166739
-0.00166739
-0.000863556
0.00059422
-0.000575
0.00155081
-0.000301221
-0.000130757
0.000933366
0.000679698
0.000245091
2.90445e-05
0.00109694
0.000470577
-0.00298226
0.00270301
6.756e-05
0.000221558
0.00275449
-0.00119245
-0.000618601
0.000340393
-0.000109489
-0.00126527
0.00130938
-0.000395308
-9.70875e-06
0.000353714
-6.12951e-05
-0.000726144
0.000196107
0.00111438
-0.00127702
0.000942365
-0.00162385
0.00103581
0.00102028
0.000443812
-0.000290409
0.000240248
0.00174519
-0.000551214
-0.000416544
0.00060453
-0.000220413
0.000343826
-4.78238e-05
0.000118247
0.00010667
-0.000315528
0.000208858
0.00034553
2.65675e-05
0.000624217
-8.36651e-05
0.000373999
0.000207979
-0.00100056
-0.000454046
-0.000692051
0.000534441
0.000172661
-0.000180699
-1.46001e-05
0.000952115
-0.00133231
0.000198214
0.000424989
0.00111052
-0.00196674
0.00113677
0.00117823
0.000300081
0.000121832
0.00134815
-0.00144905
0.000263434
0.000296579
0.00258364
-0.00135505
0.0019839
-0.00150707
0.000362078
0.00169994
-0.00150132
-0.00330669
0.00238161
-4.29665e-05
-0.00353165
0.00163714
-0.000462825
0.000321075
-0.000184511
0.000225189
-0.000639675
9.19892e-05
-0.000455512
0.00117339
0.000491241
-0.00227979
0.000629074
-0.000624287
0.000256997
-0.00147073
0.00116951
-0.0014668
7.80638e-05
-0.00104771
0.000155984
0.00126878
-0.00126878
-0.000443567
0.00222546
-0.000926556
-0.000283894
0.000477854
0.000284235
0.00119306
-0.00133344
-2.3955e-05
-0.00138883
0.000241483
0.000229094
-8.76567e-05
0.000639885
-0.000552228
0.00151133
-0.00147517
-0.000118999
-6.95099e-05
0.00145929
-0.000362352
0.000326648
-0.000603673
2.16729e-05
0.000582857
-0.000217033
0.000246077
0.00154784
-0.000512025
0.00159454
-0.00211808
0.00240146
0.000267894
-0.000200333
0.00100524
0.00103301
0.00127007
-0.00137956
-0.00102504
0.00229382
3.02827e-05
0.000399313
0.000575
-0.00047837
0.000957641
0.000363314
0.000996623
-0.000494663
0.00027425
-0.00326238
0.00199711
-0.000229283
0.000219575
0.000446661
0.000286313
-0.000168065
0.00297286
-0.00203049
-7.52798e-05
-0.000173587
-0.00252552
0.00234482
0.000204739
0.000299557
0.0014007
-0.00144853
0.000292419
-0.000119759
0.00161301
0.000371102
-0.000584575
0.000168031
0.00187815
-0.000767627
0.000959787
0.000140821
0.000350421
-0.000937183
0.00101525
-0.000327578
0.00134074
-0.00142441
0.000283167
-5.79776e-05
-8.3967e-05
0.000236207
-0.00138355
-0.000149646
0.00131018
-0.000358069
0.00131384
-0.00014433
0.00282309
-0.00164486
0.000266886
-0.000880772
0.000951485
-0.000252993
0.000210026
0.000263653
2.0582e-05
-0.000260201
0.000738056
0.00246229
-0.00132552
0.000369915
0.000704994
-0.000190703
-0.000714203
0.000530556
5.08605e-05
-0.00117563
0.000951596
-4.83491e-05
0.00021802
0.000108628
8.59785e-05
-6.33665e-05
0.000221019
2.5058e-05
0.00234338
0.000629477
0.000225297
0.000255
0.000322656
-0.000495317
0.000211424
-8.26426e-06
-0.000124062
0.000124353
-0.00302461
0.00163578
-0.000813755
0.00177368
-0.0014116
0.000425469
0.000279525
0.000155566
0.000207749
-0.000221068
-0.00274621
0.00214254
0.00142584
-0.000468195
0.000272355
0.00159028
-0.0014343
0.000913811
-0.000327067
0.000163407
-2.92378e-05
0.000475899
0.001995
-0.00136593
-0.0024163
0.00106125
0.000487936
0.000934131
-3.88176e-05
0.00138325
-0.00145276
0.00164476
-0.000648141
0.000205674
0.00213093
-0.00109791
-0.000536881
0.000390564
0.000129592
-3.3418e-05
0.00011511
0.000792601
-0.00052305
7.94833e-05
-0.00035502
0.000238602
-0.00190602
0.000478369
0.000321182
-0.000265849
0.000190569
-0.0010275
0.00131356
0.000817427
-0.000401391
-0.000555378
0.000791585
0.00146602
-0.00143574
-0.00100056
0.000856234
1.46833e-05
0.000877137
0.000264194
-0.00223368
0.000766884
-0.000396457
0.00022287
5.65861e-05
0.000313328
0.00123929
0.000682244
0.000182677
-0.00127389
0.000805407
-0.000187941
0.000238801
0.00117227
-0.000220783
-5.58222e-05
0.000244023
-0.000158044
-0.000179762
-0.000141457
-4.11609e-05
-0.00271744
0.00133389
-0.000247811
0.000570467
1.7498e-05
-0.000468648
0.00014107
-0.00275689
0.00187612
-0.000257224
0.000264335
0.000238328
-0.000113975
0.000845201
0.00186756
-0.000915967
0.00047837
-0.000386381
-0.00219904
0.00207498
0.000219859
-5.64516e-05
0.000228088
0.00129659
-0.000852779
0.00145953
-0.000545718
0.000189912
1.57626e-05
-0.000828544
0.000377254
0.000116661
-0.000270227
0.000153565
-0.000204509
0.000229567
0.00141089
-0.00145924
0.000841988
-0.000614352
-0.0011279
0.00076983
0.000140488
9.81139e-05
0.00213015
-0.00190486
0.000852779
-0.000867379
-0.00129659
0.00192081
-8.71011e-05
0.000408283
0.000811387
-0.00108165
0.000769649
-0.000395125
0.000174057
5.6082e-05
7.48563e-05
0.000189338
0.000207701
-0.000215965
-0.00105189
0.00086738
-0.000728849
0.000743532
-0.000739764
0.000338757
0.000401008
-0.000230689
0.000197271
0.000970234
-0.000114
0.00249567
-0.00186619
6.27363e-05
-0.000172255
0.00240653
-0.00161392
-0.000479541
0.00032552
0.000226227
0.00178209
-0.00129416
8.02839e-05
-0.000435546
0.000618223
0.00074945
-7.96572e-05
-0.00233972
0.00193833
0.000370498
0.00162897
-0.00135661
3.70034e-05
0.00164275
-0.000765618
0.000105884
-0.00107585
-4.18652e-05
-6.88922e-05
0.00220348
-0.00138606
-0.00262811
0.00160061
0.00013346
3.42922e-05
0.00013492
0.000194668
0.00151522
-0.00140011
0.000421951
-0.000280881
0.000156251
-0.00026474
6.69317e-05
-0.000234813
0.000178991
-1.73784e-05
0.000281714
0.00107585
-0.00115981
-0.000245383
0.000473471
0.00017297
-0.00192081
0.000873098
0.000343095
-6.99526e-05
-0.000273143
0.000726788
7.94798e-05
-0.000751996
-0.00206815
0.000163298
-0.00108241
-0.0019649
0.000598965
0.000184063
0.00199064
-0.00118523
0.000253834
0.000224535
0.0012907
-0.000448714
-0.000282698
0.00115981
-0.00122318
0.0001629
-0.000343095
-4.18441e-05
0.000384939
-0.000374554
0.00011733
0.000744984
0.0014121
-0.0013946
0.00017196
-0.00119801
0.000210342
1.92251e-05
-2.29885e-05
-0.000200497
0.000427514
0.00144732
-0.000635932
-0.000655468
0.000464766
-3.36732e-05
0.000540335
0.000589559
-3.75427e-05
-0.00236345
0.0017491
-5.62367e-06
0.00111967
-0.000349842
0.000217698
-0.000161616
0.000386381
-0.000306897
-0.000134044
0.000360271
-0.000788967
0.000674968
-0.000559165
0.000621901
0.00122318
-0.001262
0.000199196
-0.000118912
-4.54364e-05
-0.000124912
0.000723452
-0.000873098
-0.00196653
0.00189764
0.000665838
-0.000609891
5.9058e-05
0.000168801
-6.29165e-05
-0.000231481
0.000151824
0.000604581
-0.00242534
0.00134369
0.000681701
-0.00019142
0.000225712
0.00177883
-0.00100918
0.000126702
6.758e-06
-0.00037515
0.00051007
0.000334417
-0.000422074
-4.71449e-05
0.00193267
-0.00176938
6.89601e-05
8.72906e-05
0.00212332
-0.00106207
-0.000317763
0.000145508
-0.000425118
0.000719913
0.000595303
-0.00206521
0.00180047
0.00014767
0.00162309
-0.00125259
0.000207979
0.000960374
-0.000210924
9.83212e-05
-1.92003e-06
0.00017489
0.000553391
-0.000824735
-0.0001337
-5.24897e-05
0.001262
-0.00130316
0.000266479
-0.000251975
0.000414875
0.000677676
-0.00175007
0.000455912
-3.38605e-05
-0.0018844
0.000115027
-0.000167566
-0.00020962
0.000228845
0.0005936
2.62774e-05
0.000849431
0.00217573
-0.00174822
0.00158025
-0.000853466
0.00033657
-0.00021924
5.56885e-05
-0.00229107
0.00153908
-8.93113e-05
0.000261271
0.00126678
-0.000521794
3.758e-05
0.000495054
0.000670958
4.98875e-05
0.000291331
6.3785e-05
0.00199006
-0.0014005
0.00054369
0.00152332
-0.00132865
0.000623519
-0.00019805
0.00139767
-0.000731835
0.000630846
0.00211731
-0.00157697
7.5718e-05
0.000390817
0.000108296
-0.000219751
0.000106586
0.000113165
0.000201207
-0.000224196
8.53706e-05
1.60926e-05
-0.00115111
-0.000636563
0.000591127
0.000123211
-0.000299884
9.93871e-05
-0.000219236
0.000181693
0.00148435
-0.00140487
-0.000465733
0.000524791
-0.000541976
-1.46625e-05
0.000213497
-0.000219121
-0.000154375
0.000688675
-0.0012263
0.00183187
-0.00122729
0.00181691
-0.00170189
0.000306897
-0.000239965
0.000369086
0.00130316
-0.00134502
0.000813755
-0.000138787
-0.00208367
0.00165855
0.00139612
-0.000714419
4.4337e-05
0.00196294
-0.00167161
8.5579e-05
0.000413086
0.000814617
-0.0004802
0.000571072
-6.79271e-05
-0.00182973
0.00179587
-0.000283203
-0.000954738
0.000604896
-0.000186973
0.000334643
0.000602831
-0.000348962
0.000447283
0.000204726
-0.00219595
0.00111354
0.00191823
-0.00154914
8.97472e-05
0.000431368
0.000219104
9.7404e-06
-0.00189171
0.00172414
0.00121798
0.000535892
6.59136e-05
-0.00158169
0.000329102
-0.000644125
-0.000206619
0.00015413
0.0017724
0.000190542
0.000542655
0.000580104
-0.000241348
-1.2816e-05
0.00181397
-0.00140088
0.000246615
7.42983e-05
0.00109535
-0.000424395
7.05145e-05
-0.00112578
-1.80279e-05
0.00165793
-0.00106433
-0.000852259
-1.06986e-05
0.000573559
-0.000277062
0.000260152
0.00149927
-0.00123279
0.000126452
-0.00215277
0.00132803
-0.00107585
-0.000115969
-1.62052e-08
-0.00164192
0.00183246
0.00122171
-0.000590862
0.000264827
0.000624646
0.000430647
-0.000279765
0.00038806
-9.58414e-05
-0.00187292
0.000674913
0.00181542
-0.0015688
-0.00189683
0.00161363
-0.00139217
0.00134502
0.000343095
0.000266593
-0.000167206
0.000271354
-0.000693427
0.000173499
4.73532e-05
-0.000529787
0.000515125
-0.00203277
0.00149079
0.000678145
-8.70187e-05
0.00167892
-0.00124755
-0.000374213
0.000507289
0.00093988
-0.000334985
-0.000873098
-0.000613692
-0.000172684
0.000668941
-0.000397587
0.000539358
-2.49265e-05
-4.99658e-06
0.000176609
-0.000160516
-0.000187205
0.000119278
0.000160517
-0.00013424
0.00148452
-0.000913445
0.000239965
-0.000184277
-0.000340356
-0.000584882
0.000386832
0.000134239
-9.66592e-05
-0.00196594
0.000903866
0.000731835
-0.000527108
0.000278035
-0.000418353
0.00046269
-0.00054369
0.000418778
9.66602e-05
-4.67727e-05
0.00168993
-0.0014251
4.6773e-05
1.70119e-05
0.000170617
-0.000296579
-9.35149e-05
0.000390094
-1.70123e-05
9.27303e-05
5.48786e-05
-0.000550208
-0.000278336
0.000121128
0.00178564
4.6822e-05
-9.27294e-05
0.0001781
-0.000813232
0.000536169
-0.000242438
8.8063e-05
0.000420183
-0.000210401
-0.00175378
0.0018243
2.89302e-05
-0.00186031
0.00176447
0.00131669
-0.000774034
0.000818752
0.000279627
-0.00109838
0.00105699
-0.000483428
-0.00017661
0.00018635
0.00181433
-0.00182714
-0.000120116
0.00152788
-0.00109723
0.00144545
-0.00111635
0.000515486
-0.000115987
8.35319e-05
0.000188741
-0.000178101
0.00026368
-0.00102349
0.000519325
-0.00167043
0.000466125
-0.000355138
0.000421051
0.000280331
-3.30752e-05
0.00155474
-0.00127671
0.000403243
0.000212658
-0.0018506
0.00147639
-0.000162084
8.49191e-05
7.71653e-05
0.00167723
-0.00150373
0.00146062
-0.00133741
0.000129637
-0.00184978
0.0016771
-0.000236978
0.00115436
-0.000647068
-0.000186351
0.000186335
-0.000798234
0.000463249
-0.000570059
0.000483041
-0.000186335
0.000175637
0.00137316
-0.000952972
-0.000852401
-0.00130242
3.18565e-05
-0.00150417
0.000378393
0.00192708
-0.000436295
-0.00026368
0.000337978
-4.59846e-05
-0.000690148
0.000479748
-5.4934e-05
-0.000175637
0.000157609
0.000906043
-0.000390557
3.29232e-05
-2.84614e-06
0.000380323
-0.000262064
5.57547e-05
-0.00015079
-0.00197897
0.00112671
0.000422615
-8.53104e-05
0.000298891
-0.000639247
0.00131339
0.000568699
-0.000269808
-0.000650937
-4.28061e-05
0.000275923
0.00172405
0.00150373
-0.0013826
-0.000465489
0.000460492
0.000527108
-0.000338368
0.000771172
-0.000307922
0.00141157
-0.00113124
0.000171112
0.000184276
-0.000136923
0.0011426
-0.00060671
0.000999815
-0.00053369
-0.00098485
-0.000995518
-0.00024843
-0.00136332
0.000246977
-0.000984931
-0.000157609
0.000132682
0.0012196
-0.000816361
-0.000210295
4.30886e-05
0.000856306
-0.000433691
-0.000677749
0.000415685
0.000134865
0.000380615
-2.79877e-06
-0.000122231
-0.00124307
0.00141369
-0.000337979
0.000392857
0.000352747
-0.000198001
-0.00113007
0.00134273
-0.000585946
0.000435157
-0.000527732
0.000279303
-0.00179605
0.00155907
-0.000418778
0.000298662
0.00106947
-0.00068915
0.000322617
-0.00175993
0.00132363
0.000266632
0.0013826
-0.00125297
0.000726331
-0.000345716
0.00124828
-0.0010013
-0.000132682
9.96072e-05
-0.000102906
0.000106413
0.00029264
-0.000283538
-0.000407747
0.000436677
-0.000651767
0.000343844
-0.000118952
0.000537006
-0.000312472
-0.000296579
-0.000494145
0.000439211
0.00126555
-0.000989627
0.000925636
-0.000572889
0.00170708
-0.00175306
-0.000236081
0.000338368
-0.000167256
-0.00172405
0.00175591
-0.000576181
0.00037818
-0.000468135
0.000790752
-0.00175591
0.00175306
-9.96069e-05
5.68008e-05
-0.000198085
8.20979e-05
-0.0001409
-0.00170708
0.00162177
0.000253112
0.000118204
0.000611103
-0.000267259
0.000667166
-0.000374525
0.000274649
-0.00125958
-0.000141024
0.000134309
0.000236486
0.00178643
-0.000473036
-0.000392858
0.000425781
0.000265387
1.33047e-05
-0.00150373
0.00125297
-0.0011181
9.9657e-05
0.00113549
0.000199031
0.000217863
-0.000844913
0.00174878
-0.00113494
0.000133638
-0.000503718
0.000400812
-0.00179163
0.000939226
-0.000550052
0.000313971
-0.0016082
0.000763287
-0.000860289
-3.36521e-05
-5.68007e-05
4.88071e-05
7.99361e-06
0.000416648
-0.0014015
-0.000664915
0.000295762
0.000257629
-0.000298662
0.000157761
-0.000842933