/*--------------------------------*- C++ -*----------------------------------*\
  =========                 |
  \\      /  F ield         | OpenFOAM: The Open Source CFD Toolbox
   \\    /   O peration     | Website:  https://openfoam.org
    \\  /    A nd           | Version:  8
     \\/     M anipulation  |
\*---------------------------------------------------------------------------*/
FoamFile
{
    version     2.0;
    format      ascii;
    class       volVectorField;
    location    "0.35";
    object      U;
}
// * * * * * * * * * * * * * * * * * * * * * * * * * * * * * * * * * * * * * //

dimensions      [0 1 -1 0 0 0 0];

internalField   nonuniform List<vector> 
1924
(
(0.13907 0.141613 1.75218e-17)
(0.314757 0.13768 4.8897e-18)
(0.791084 -0.0731386 -1.91321e-19)
(0.726602 -0.255307 5.68096e-19)
(0.303862 0.249395 4.73567e-18)
(0.839333 -0.318014 4.12233e-18)
(0.746262 -0.485224 4.41373e-18)
(0.705645 -0.55158 6.4966e-18)
(0.525576 -0.684155 6.99595e-18)
(0.680745 -0.0714862 -7.12584e-19)
(0.475384 -0.706845 7.59502e-18)
(0.444002 -0.805817 5.56372e-18)
(0.55864 0.957493 -5.29323e-19)
(0.658982 -0.79614 3.47641e-18)
(0.362537 -0.698131 5.0621e-18)
(-0.00600098 -0.128058 9.97466e-18)
(0.522098 0.873073 1.34725e-19)
(0.771376 -0.864372 2.66481e-18)
(0.28882 -0.000190443 2.26699e-17)
(0.910679 -0.923551 1.5361e-18)
(0.419398 0.974602 1.8044e-18)
(0.443108 0.420744 4.64855e-18)
(0.563122 0.398371 -2.6428e-18)
(0.869332 -0.97375 6.95778e-20)
(0.543885 0.393818 7.6107e-18)
(0.407898 0.318988 7.19839e-18)
(0.413101 0.267333 7.77508e-18)
(0.13251 -0.114725 1.45074e-20)
(0.439994 0.511123 1.16584e-17)
(0.388806 -0.699682 -7.8243e-19)
(0.317051 0.607608 -4.97388e-19)
(0.373352 0.466449 5.90031e-18)
(0.0210119 0.435331 2.36519e-17)
(0.583845 0.873434 -5.5326e-19)
(0.272561 -0.0497928 -3.51343e-20)
(0.352577 0.147762 -4.02141e-18)
(0.341931 0.372188 6.34827e-18)
(0.404488 0.40857 5.71996e-18)
(0.219643 -0.20011 -2.61043e-18)
(0.467161 0.814917 -1.25583e-21)
(0.353158 0.324058 6.40687e-18)
(0.515459 1.04981 2.97899e-19)
(0.378145 0.309979 6.38877e-18)
(0.766923 0.46564 -3.10974e-18)
(0.656673 -0.335712 5.51425e-18)
(0.234399 0.385893 1.60426e-17)
(0.192326 -0.270486 1.69031e-17)
(0.675452 -0.274784 -1.30245e-19)
(0.543835 1.24097 6.05438e-19)
(0.297155 0.787193 3.63761e-18)
(-0.623753 -0.178893 2.36784e-18)
(0.487528 0.958641 4.15542e-19)
(0.638523 0.618203 5.47835e-18)
(-0.755055 -0.0722554 1.90783e-18)
(0.211238 0.333112 1.48996e-17)
(0.538594 -0.197367 -6.5223e-19)
(0.26711 -0.146001 2.03844e-17)
(0.417664 -0.576236 -3.60118e-18)
(0.415488 -0.820402 -3.3982e-18)
(0.596757 0.878191 1.00178e-17)
(0.277477 -0.0408641 5.16429e-20)
(0.244591 0.706689 9.38579e-18)
(0.393217 0.02701 1.6135e-19)
(0.128098 -0.280673 -2.53317e-19)
(-0.544114 0.0225367 1.35165e-18)
(0.669213 -0.334055 -3.04448e-19)
(0.448544 1.39375 1.2086e-17)
(0.365386 0.266883 -2.0799e-18)
(0.292089 0.389872 1.58235e-17)
(-0.52892 -0.280822 1.64291e-18)
(0.0182609 0.21712 4.33724e-18)
(0.219641 1.19409 1.05478e-17)
(0.273726 -0.25124 -4.92464e-21)
(0.0839572 -0.422982 4.82209e-19)
(0.127485 -0.448726 7.49402e-19)
(-0.702291 0.371514 3.90904e-18)
(0.577221 -0.339942 -8.71293e-19)
(0.194242 -0.457345 3.6393e-19)
(0.599203 -0.131316 4.23845e-19)
(-0.120013 -0.368316 2.35794e-19)
(0.312912 -0.626842 -2.38906e-19)
(0.426136 0.295776 8.49518e-18)
(0.0218466 -0.17899 1.2589e-18)
(0.266655 0.730186 2.51779e-18)
(0.117424 0.171924 2.25972e-17)
(0.305981 0.171845 -2.77779e-19)
(0.343721 -0.512959 -1.30044e-18)
(0.681449 -0.519733 3.50915e-18)
(0.331845 0.856981 1.97436e-18)
(0.0590272 0.294287 4.18571e-18)
(0.716235 1.51001 1.66776e-17)
(0.392385 0.294233 8.66924e-18)
(0.289499 0.379489 1.48191e-17)
(0.362956 0.30092 1.38631e-17)
(0.151449 0.501374 3.23718e-18)
(-0.515549 0.0766272 8.29331e-19)
(0.548594 -0.359755 -8.73513e-19)
(0.384323 -0.594145 3.24505e-19)
(0.604571 0.928777 1.53165e-17)
(0.0432456 0.171841 3.66262e-18)
(0.924763 0.39772 -4.19893e-19)
(0.255191 0.69357 2.47653e-18)
(0.553552 1.07067 1.81049e-17)
(0.437801 0.414631 1.09651e-17)
(0.381259 0.241799 1.3712e-17)
(0.296629 -0.509779 1.28293e-18)
(0.889397 0.789289 7.27995e-18)
(0.247955 0.0610528 1.28407e-17)
(0.268711 0.498614 1.12531e-17)
(0.406602 0.406788 1.41434e-17)
(0.467304 -0.403937 -5.77321e-19)
(0.369237 0.525843 1.51945e-17)
(0.30439 0.232279 2.42477e-18)
(0.132708 -0.187502 3.41127e-19)
(0.48815 -0.200065 -2.31596e-20)
(0.165547 0.501419 3.42608e-18)
(0.970432 0.22852 -3.0491e-19)
(-0.502449 -0.27049 1.14186e-17)
(0.0836917 -0.10701 1.64719e-18)
(0.493277 -0.327158 -8.24746e-19)
(0.313691 0.0851382 2.47637e-17)
(0.977508 0.0748545 -1.73119e-18)
(0.456478 1.05354 1.04499e-18)
(0.0833944 0.340868 3.65027e-18)
(0.273415 1.54027 1.38078e-17)
(0.411746 0.294259 1.19629e-17)
(0.0836923 0.103053 6.75245e-18)
(0.247969 -0.476024 3.93176e-19)
(0.491626 0.452196 1.39782e-17)
(0.857256 -0.188684 -1.09769e-18)
(0.403876 -0.420217 -3.10032e-19)
(0.996541 0.701313 2.17522e-18)
(-0.504176 -0.246778 1.37898e-17)
(0.79293 0.190769 -3.57165e-19)
(0.3749 0.807668 1.73546e-18)
(0.559346 0.337975 1.36706e-17)
(0.617068 0.46437 3.37903e-18)
(0.678288 0.616276 7.21086e-18)
(0.890908 -1.07614 4.12625e-19)
(0.309882 0.0897473 9.61482e-19)
(0.608021 -0.414142 -5.06319e-19)
(0.232202 1.67579 1.18595e-17)
(0.227653 -0.536802 6.57511e-18)
(0.00364191 0.303598 1.30738e-17)
(1.13903 0.277718 2.15544e-18)
(0.777923 -0.229478 -3.09602e-18)
(0.233819 0.0150346 1.3104e-17)
(0.0339451 0.155282 4.82163e-18)
(0.208025 0.494771 9.4173e-18)
(0.0482204 -0.16574 8.67668e-19)
(0.027603 -0.191723 9.56936e-19)
(0.813444 0.00616444 -8.06947e-20)
(0.06259 0.212199 5.14812e-18)
(1.2133 0.934454 2.02235e-18)
(1.08611 0.0153109 6.80766e-18)
(0.412785 0.236022 1.04361e-17)
(0.939155 0.197238 -4.81052e-18)
(0.701312 0.31018 3.54748e-19)
(0.346895 -0.440192 1.35503e-18)
(0.0606446 -0.168696 -6.18379e-19)
(0.870183 -0.210729 2.24951e-18)
(-0.0337282 0.0415334 1.27028e-17)
(1.32051 0.748211 1.89165e-18)
(1.09986 0.0156097 -2.50029e-20)
(0.0550928 -0.232662 6.34543e-19)
(0.566075 0.385938 1.35218e-17)
(0.58033 0.419462 1.20931e-17)
(0.898366 0.220381 -3.87381e-18)
(0.435957 -0.364873 -9.31499e-19)
(0.60056 0.415977 1.35749e-17)
(0.0461847 0.369008 2.11832e-17)
(0.999555 -0.0458059 9.09869e-18)
(0.279471 -0.521243 3.24376e-19)
(0.541603 0.361942 8.8932e-18)
(0.598357 -0.348533 -8.00838e-19)
(0.126735 0.340953 4.435e-18)
(0.182073 -0.235338 2.41583e-18)
(-0.0337195 0.25677 2.15765e-18)
(0.18452 -0.115284 -2.51294e-18)
(1.40946 0.900174 1.31387e-18)
(0.320325 0.246882 1.09206e-17)
(-0.695096 -1.06382 7.35227e-18)
(0.194871 -0.391329 1.73029e-19)
(0.570864 0.432147 1.28023e-17)
(0.575246 1.23999 -8.07316e-19)
(0.30604 -0.424003 2.09197e-18)
(0.0708063 0.257615 5.85482e-18)
(0.511421 0.499691 1.45044e-17)
(0.41682 -0.425838 -1.33485e-18)
(0.323628 -0.197274 6.98424e-19)
(0.0184075 -0.0183621 6.44463e-18)
(0.820409 -0.288728 8.55476e-18)
(0.331041 -0.420486 1.54663e-18)
(1.17176 0.374667 8.09003e-18)
(0.709376 0.561642 1.3104e-17)
(0.805218 -0.00873259 -5.21168e-20)
(0.474491 0.729355 1.39706e-17)
(0.143555 0.334222 5.9138e-18)
(0.160797 0.26777 7.90767e-18)
(0.218121 0.432823 3.98363e-18)
(0.071801 0.465866 1.96424e-17)
(0.353545 -0.016689 9.52555e-21)
(0.676513 0.458067 1.23602e-17)
(0.712536 -0.314583 9.2786e-18)
(0.243434 0.359747 1.35255e-17)
(0.269526 0.34214 9.08148e-18)
(1.07827 0.469464 8.65096e-18)
(0.168774 0.439974 4.03899e-18)
(0.0909303 0.280216 4.24181e-18)
(-0.501401 -0.683232 8.35766e-18)
(1.16054 -0.0158603 1.61605e-19)
(0.888252 0.606005 1.15629e-17)
(0.915789 -1.2266 -4.03519e-19)
(0.714766 0.580374 1.35996e-17)
(0.394173 0.488398 1.0974e-17)
(0.2699 -0.489453 4.63789e-19)
(0.196523 0.226707 3.96982e-18)
(0.109466 0.3356 4.47203e-18)
(0.842459 0.0570495 9.24719e-18)
(0.243426 -0.47712 5.32811e-19)
(0.298759 0.123545 1.16814e-17)
(0.212519 -0.131777 -3.34363e-18)
(0.705345 0.552356 1.34027e-17)
(0.905297 -1.29099 3.49675e-19)
(0.554582 -0.571247 9.23529e-18)
(0.493223 0.667382 1.4077e-17)
(0.34922 -0.483297 4.34301e-18)
(0.281127 -0.550121 1.28631e-19)
(0.80939 0.686676 1.20447e-17)
(0.248684 0.415515 4.05913e-18)
(0.117996 0.397738 1.56793e-17)
(0.636308 1.2231 1.85817e-17)
(0.192397 0.274551 7.17703e-18)
(0.39916 -0.110546 3.44146e-18)
(0.558416 0.8121 1.58647e-17)
(0.0113458 -0.134503 2.58913e-19)
(0.694657 -1.33657 -1.30692e-18)
(0.854139 0.0698426 8.63876e-18)
(0.85866 0.657108 1.40899e-17)
(0.837502 -0.0567243 -9.84025e-20)
(-1.07299 -1.40027 3.71904e-18)
(0.260847 0.286079 6.30261e-18)
(0.692054 -1.19356 -1.12311e-18)
(0.181416 0.470525 3.55282e-18)
(0.308506 -0.138988 1.23811e-18)
(0.146152 0.444737 3.48595e-18)
(0.75224 -0.501984 8.84411e-18)
(0.614267 -0.337728 -8.94944e-19)
(0.224796 -0.44077 4.22567e-19)
(0.3126 -0.561418 -4.54977e-19)
(0.278113 -0.805461 -2.73414e-18)
(1.09605 -0.0464834 6.56057e-20)
(0.82357 0.698894 1.50957e-17)
(0.854202 0.654897 7.73439e-18)
(0.3687 -0.436826 -1.28091e-18)
(0.710399 -1.43684 3.06754e-21)
(0.420312 0.325353 7.8357e-18)
(0.305741 0.31837 5.57959e-18)
(0.19641 0.335079 1.17336e-17)
(0.832431 -0.156364 8.14169e-18)
(0.432828 0.414312 1.35503e-17)
(0.892523 0.722539 1.27125e-17)
(0.534341 0.228442 1.27832e-17)
(0.288013 -0.455317 5.59273e-20)
(0.28655 0.458346 5.88902e-18)
(0.106088 -0.301907 1.49115e-18)
(0.647068 1.16228 -1.82093e-18)
(0.243479 -0.48727 1.91386e-19)
(0.183735 0.209644 1.41631e-17)
(0.0785321 -0.389039 1.33122e-17)
(0.313325 0.450924 3.23356e-18)
(0.0459612 -0.21837 6.77899e-19)
(0.200596 0.382639 1.73918e-17)
(0.310508 0.271997 6.10968e-18)
(0.550247 1.2872 1.85203e-17)
(0.268026 -0.68482 5.85327e-19)
(0.813781 -0.672188 4.35978e-18)
(0.559452 0.751163 1.63605e-17)
(1.24654 1.02496 4.77027e-18)
(0.234691 0.341249 5.35573e-18)
(0.187155 0.294575 1.94707e-17)
(0.792119 -0.0660634 -5.90029e-19)
(0.752787 1.22107 1.78239e-17)
(1.03681 0.903065 9.81437e-18)
(0.412357 0.0176375 2.559e-17)
(0.0935331 -0.38151 3.72904e-19)
(0.364831 -0.427641 2.44061e-18)
(1.04002 -0.136478 -1.18388e-18)
(1.07989 -0.0199098 5.91991e-18)
(0.27113 0.280394 5.82827e-18)
(1.30471 1.21306 5.58637e-18)
(0.227661 -0.10613 -7.19297e-20)
(0.656225 0.892204 1.68814e-17)
(0.495436 -1.43577 -8.96479e-19)
(0.211701 0.515095 4.57434e-18)
(0.0726652 -0.251574 6.98795e-19)
(0.604952 -1.43463 1.65715e-19)
(0.28124 0.615729 2.25432e-18)
(0.280569 -0.510805 3.99089e-19)
(0.470346 -1.58131 -1.05422e-18)
(0.668392 -0.158373 -9.32521e-19)
(1.01889 1.01685 1.236e-17)
(0.484546 -1.1691 -3.34539e-19)
(0.125908 0.228962 2.44338e-18)
(1.04202 -0.633233 3.58824e-18)
(0.32799 0.246946 6.77235e-18)
(0.686293 1.1352 -1.96442e-18)
(0.484664 -1.05285 -2.06465e-19)
(0.327521 0.321398 6.52718e-18)
(0.449094 -0.122915 1.28782e-18)
(0.215066 0.548785 2.85965e-18)
(0.0126917 -0.190883 8.19416e-19)
(0.915196 0.976974 1.00647e-17)
(0.614209 0.63048 5.43745e-18)
(0.338616 -0.448247 -7.13924e-19)
(0.770426 0.971749 -2.46012e-18)
(0.484943 0.401102 1.26487e-17)
(1.16598 -0.214602 4.61111e-18)
(0.92327 1.02953 5.01396e-18)
(0.616755 0.538136 1.43506e-17)
(0.0210656 -0.272674 1.3863e-18)
(0.32562 0.419445 3.31637e-18)
(1.34809 1.25435 4.31324e-18)
(0.0874791 -0.240582 5.43408e-19)
(0.377068 0.257034 8.36857e-18)
(0.242834 -0.599201 5.30564e-19)
(0.310266 0.270119 6.91946e-18)
(0.321133 0.270655 6.69986e-18)
(0.591307 -0.336751 -4.58152e-19)
(0.493935 -0.523806 2.69983e-18)
(0.259345 0.342873 5.32516e-18)
(0.422776 1.40477 1.33713e-17)
(0.438695 0.43229 4.90635e-18)
(1.03004 -0.796537 2.55967e-18)
(0.185332 -0.411338 9.35449e-19)
(0.658448 0.85224 1.68027e-17)
(0.50518 1.18136 1.51788e-17)
(1.22966 1.5733 4.92355e-18)
(1.07733 1.46208 4.71484e-18)
(1.40965 1.65459 2.29753e-18)
(0.241488 -0.582049 5.20767e-19)
(0.0571595 -0.215958 3.61344e-19)
(0.628236 0.691541 7.55287e-18)
(0.300954 0.597358 2.6363e-18)
(0.279828 -1.56547 7.74742e-19)
(-0.134793 0.775752 1.62968e-17)
(0.123127 0.426541 1.59815e-17)
(0.205815 1.48623 1.54751e-17)
(0.00161318 -0.180742 8.17274e-19)
(0.332483 0.262335 6.37995e-18)
(0.364187 0.241217 5.20279e-18)
(0.451734 -0.513484 -2.58658e-18)
(0.0348172 -0.21292 3.22485e-19)
(0.297738 -1.35783 -4.80828e-19)
(0.327577 0.726792 2.00862e-18)
(0.250005 -0.561979 1.70377e-19)
(0.861853 0.680582 -4.94609e-19)
(1.17018 -0.0444599 4.9423e-18)
(0.351097 0.394386 5.73247e-18)
(-0.424582 0.0496869 4.18576e-19)
(0.74106 0.976754 1.80517e-17)
(0.193935 -1.62968 -9.83259e-19)
(0.313412 -1.22578 -3.40751e-19)
(0.464025 1.30835 1.77986e-17)
(0.382016 0.23882 5.37446e-18)
(1.18172 1.12433 6.43852e-18)
(0.562837 0.712225 6.37662e-18)
(0.390627 0.465117 2.31522e-18)
(0.895208 1.47906 6.46807e-18)
(1.33442 1.82047 4.24363e-18)
(0.331337 -1.01999 -2.44217e-19)
(0.62441 0.546089 1.58854e-17)
(0.347493 0.339421 5.67853e-18)
(-0.951605 -1.42577 -5.73816e-19)
(0.406222 0.289273 8.31698e-18)
(-0.0207565 0.286926 4.21589e-18)
(0.0940649 -1.72702 -7.16463e-19)
(0.0230911 -1.41916 3.35945e-18)
(0.303037 0.587725 6.44006e-18)
(0.0327601 1.25055 1.71376e-17)
(-0.163184 0.808041 1.9872e-17)
(0.238459 -0.528933 6.30338e-19)
(0.307021 0.267255 6.24657e-18)
(0.688763 0.650046 1.57472e-17)
(0.301634 0.377295 4.45914e-18)
(0.323057 -0.92896 -7.30183e-19)
(0.13785 -0.393284 1.8799e-18)
(0.422642 1.34094 1.63626e-17)
(0.420672 0.303847 8.04336e-18)
(1.3608 1.3795 6.57203e-18)
(0.00315518 -0.168628 8.50573e-19)
(0.378635 0.294889 5.67915e-18)
(0.410586 0.372494 9.76642e-18)
(0.310934 1.38901 1.46965e-17)
(1.24115 1.48739 5.79603e-18)
(0.126422 0.300062 1.55001e-17)
(0.422349 0.357039 8.01764e-18)
(0.520717 0.757012 6.88656e-18)
(0.518105 -0.517411 1.85422e-18)
(-0.660897 0.024187 1.21185e-17)
(0.442213 -0.339599 -3.24935e-19)
(0.222011 -0.5137 6.74222e-19)
(0.38401 0.639231 1.09187e-18)
(0.198416 0.0898925 1.39786e-17)
(0.620354 0.0985566 -1.72918e-18)
(0.458209 1.13992 1.43884e-17)
(0.292845 -0.797617 1.49385e-19)
(0.229834 1.37851 1.50764e-17)
(0.362476 0.372343 4.14955e-18)
(0.426401 0.365341 9.15799e-18)
(0.724281 0.964701 2.00125e-17)
(0.257372 0.108762 4.48452e-18)
(1.13056 -0.298428 4.1365e-18)
(1.09333 0.742737 7.68137e-18)
(0.960061 1.78137 5.90489e-18)
(-0.00787633 0.244802 1.7366e-18)
(0.220466 -0.668525 6.13298e-19)
(0.0312829 -1.48042 -4.69795e-19)
(0.217346 0.0935533 1.57489e-18)
(0.53066 -0.402352 1.9762e-19)
(0.0868368 -1.35683 -3.77811e-19)
(0.421966 0.411275 5.05799e-18)
(0.277569 -0.740365 8.17208e-19)
(0.373453 0.727576 6.48475e-19)
(0.597897 0.541645 6.15495e-18)
(0.184159 -1.14444 -1.86961e-19)
(0.328021 -0.444684 -8.58073e-19)
(0.254206 0.298606 1.82278e-18)
(0.457671 0.532696 7.30065e-18)
(0.418797 0.245896 8.46968e-18)
(0.416769 1.2285 1.58032e-17)
(0.203642 -0.640876 -7.02148e-20)
(0.380797 0.299827 1.08566e-17)
(0.11738 -0.0944437 1.63223e-18)
(1.24109 1.7602 5.93583e-18)
(0.40377 0.270642 7.56433e-18)
(0.196223 -1.05106 -1.83619e-19)
(0.576617 1.16518 -2.29071e-18)
(1.12549 0.901046 7.342e-18)
(0.503899 0.62033 6.71799e-18)
(0.320645 0.373855 4.38322e-18)
(0.458334 0.339913 7.89519e-18)
(0.635327 0.726458 1.41548e-17)
(0.0725168 -0.275315 9.12771e-19)
(-0.0934677 1.22664 1.46202e-17)
(0.0765587 -0.0708233 -2.3989e-19)
(0.768359 1.08517 1.86287e-17)
(0.192081 -0.466663 7.15135e-19)
(0.354809 0.341905 9.09234e-18)
(0.346616 1.28148 1.57132e-17)
(-0.442494 -1.45653 4.67825e-18)
(0.368253 0.302803 6.67209e-18)
(0.697694 0.883579 1.44396e-17)
(0.628367 -0.648545 1.85089e-18)
(0.452105 0.354355 7.45017e-18)
(0.475444 0.529986 1.28032e-17)
(0.221008 -0.907885 -2.66829e-19)
(-0.284907 -1.67608 -5.9598e-19)
(0.0727109 -0.143835 8.14929e-19)
(-0.478002 0.335205 1.84152e-17)
(0.189196 -0.618555 2.58125e-19)
(0.419333 0.648374 5.8995e-18)
(0.931624 0.806253 -6.80384e-18)
(0.0475614 -0.16133 6.23474e-19)
(0.393616 0.602915 1.2003e-18)
(0.275785 1.31622 1.53582e-17)
(0.0782661 1.32506 1.30139e-17)
(0.882867 1.70775 1.01202e-17)
(1.13742 0.592037 6.41133e-18)
(0.622367 0.0687522 1.23859e-18)
(0.359353 0.366294 1.17245e-17)
(0.214236 0.00207787 3.27501e-18)
(-0.0389465 -0.395039 2.21178e-18)
(0.214548 -0.843903 -3.08352e-19)
(0.53065 0.619115 3.51928e-18)
(0.19054 -0.605257 2.5236e-19)
(0.0743359 -0.280228 -2.49112e-18)
(1.05576 0.0276888 5.60718e-18)
(-0.27568 1.00667 1.38544e-17)
(-1.01121 -0.650158 7.00426e-18)
(0.703994 1.13461 1.84351e-17)
(1.1545 1.51733 5.7821e-18)
(0.36446 0.984762 1.2843e-17)
(-0.0752618 1.27121 1.21111e-17)
(0.400025 0.486186 5.43275e-18)
(0.413846 0.447533 1.08804e-17)
(0.487401 0.282126 7.54879e-18)
(-0.942758 -1.19242 -1.82803e-18)
(0.283094 0.250965 7.2054e-18)
(0.346752 -0.442362 1.40351e-19)
(0.61154 1.06487 -2.33695e-18)
(0.370535 0.240551 7.56395e-18)
(0.149957 -0.0831196 2.01027e-18)
(0.534414 -0.472768 2.08331e-18)
(-0.00660127 -1.21368 -8.00863e-20)
(0.204563 -0.753541 1.70651e-19)
(-0.475712 0.528979 1.45856e-17)
(0.36022 1.13958 1.44746e-17)
(0.48255 0.309766 7.86909e-18)
(0.105626 -0.260795 7.97573e-19)
(0.0311785 -1.12752 -9.91497e-20)
(-0.473708 -1.66182 -3.70176e-20)
(0.339747 0.429268 4.43526e-18)
(0.591301 0.713838 6.74004e-18)
(0.460973 0.790358 2.976e-19)
(-0.125115 0.348572 1.07665e-18)
(-0.219688 -1.39543 -1.50759e-19)
(0.463362 0.401279 8.21578e-18)
(0.291094 0.136525 4.69609e-18)
(0.112768 -0.988947 -1.13412e-19)
(0.175383 -0.58286 7.36213e-19)
(0.188862 -0.709441 7.35748e-19)
(0.276284 1.2078 1.46466e-17)
(0.664941 0.914637 1.57373e-17)
(0.160337 1.26478 1.36498e-17)
(0.0128233 1.27413 1.35773e-17)
(0.479132 0.615246 6.12007e-18)
(0.452419 0.444381 1.20575e-17)
(1.08926 0.846223 6.08366e-18)
(-1.00875 -0.435572 8.72988e-18)
(0.0735719 -0.14137 3.94182e-19)
(-0.3215 -1.47335 -2.18262e-19)
(0.156174 -0.67261 8.83131e-20)
(0.122886 -0.925399 -9.48659e-20)
(0.725423 1.0775 1.4085e-17)
(0.562164 0.662653 1.56647e-17)
(0.105569 -0.50109 2.7973e-18)
(0.0373997 -0.27801 -2.48419e-18)
(0.455653 0.367844 8.91081e-18)
(0.836936 1.95559 1.03377e-17)
(0.0390422 -0.155901 8.86255e-20)
(1.00919 -0.246335 3.05651e-18)
(0.225832 0.0131201 2.87945e-18)
(0.188854 -0.0584582 6.78391e-19)
(0.489423 0.666119 6.98091e-19)
(-0.273766 1.20455 1.01942e-17)
(1.07259 1.82256 5.13857e-18)
(0.432412 0.797122 3.5261e-18)
(0.840752 0.75585 -3.9345e-18)
(0.491689 0.687505 9.33809e-18)
(0.333065 0.27383 3.37793e-18)
(0.111373 -0.280092 4.88066e-19)
(-0.317423 -0.365043 -8.90178e-19)
(0.168726 -0.56499 1.4921e-18)
(0.145026 -0.830032 -1.25813e-19)
(0.41519 -0.0611733 5.8495e-18)
(-0.275896 -0.165194 1.9277e-18)
(0.0956748 -0.279428 1.0629e-19)
(-0.589839 0.967268 1.13496e-17)
(0.545257 -0.730181 6.06908e-19)
(0.544063 0.230893 7.25848e-18)
(0.332115 0.827768 9.25501e-18)
(-1.12292 -1.11113 2.58722e-18)
(0.137557 -0.104365 8.56175e-19)
(0.547403 0.364021 8.28328e-18)
(0.135091 -0.0800615 1.1863e-18)
(0.0342527 -0.248026 -1.97815e-18)
(-0.475011 -0.235586 9.05694e-19)
(0.103184 -0.270606 9.04957e-19)
(1.23105 0.423158 1.22136e-17)
(0.548759 0.751909 7.10154e-18)
(0.0534618 -0.146813 1.19964e-19)
(0.034777 -0.170698 1.34006e-17)
(0.276862 0.99565 9.80009e-18)
(0.336088 0.409845 5.30912e-18)
(0.328442 0.265316 1.31386e-18)
(0.149371 -0.658004 1.53697e-19)
(0.41537 -0.547696 3.36466e-18)
(-0.231237 -0.31486 1.21009e-18)
(0.270857 0.1161 2.6083e-18)
(0.141111 -0.788122 -9.86055e-20)
(0.27304 0.214684 4.17829e-18)
(0.515018 0.405061 9.03554e-18)
(0.121267 1.10694 1.03397e-17)
(0.12861 -0.553962 1.21867e-18)
(-0.241258 1.19076 9.25614e-18)
(0.0719043 -0.201025 -3.59483e-19)
(0.465455 0.717494 -6.29388e-19)
(-0.0245734 -1.028 -4.017e-20)
(0.0908165 -0.0918137 1.38092e-18)
(0.452637 0.428499 4.45736e-18)
(-1.25385 -0.0742803 4.11741e-18)
(1.13406 0.552888 5.18571e-18)
(0.00631992 1.24682 8.6228e-18)
(-0.431368 -0.0974634 4.3005e-19)
(-0.181998 -0.35936 -1.08259e-18)
(-0.170294 -1.13882 9.91861e-20)
(-0.0302796 -0.176498 2.50934e-19)
(0.133288 -0.731684 2.57309e-19)
(0.0769418 -0.230346 5.114e-20)
(0.476711 0.585062 6.92684e-18)
(0.101827 -0.128901 4.15826e-20)
(0.238211 -0.317441 2.08159e-17)
(-0.412744 -0.153146 5.83957e-19)
(-0.380565 -0.292418 -4.13438e-19)
(0.00426842 -0.970776 -5.67948e-20)
(-0.55269 1.22379 7.03441e-18)
(0.33228 -0.504367 -1.16126e-18)
(-0.605535 1.12929 8.59881e-18)
(0.0197587 -0.166493 -1.92658e-19)
(-0.41346 0.00873423 1.36972e-19)
(-0.236515 -1.20067 1.25874e-19)
(0.81647 1.69189 1.17296e-17)
(0.0848508 -0.285709 1.23414e-18)
(0.195316 -0.044617 1.83041e-18)
(0.770769 -0.0330276 5.49827e-18)
(0.512165 0.58646 1.46011e-17)
(0.140577 -0.645858 5.53068e-19)
(0.421637 0.42479 9.26399e-19)
(-0.0340501 -0.156119 2.00195e-20)
(0.48597 0.752013 8.16956e-18)
(-0.812884 -1.51088 -1.89242e-18)
(0.0580231 -0.185737 6.22893e-19)
(0.34912 -0.464296 -1.54652e-19)
(0.361279 0.236106 3.07961e-18)
(-0.840491 0.659565 1.04567e-17)
(0.742473 1.04851 1.59026e-17)
(0.539842 0.739232 6.89328e-19)
(-0.382414 -0.0683364 3.2668e-19)
(0.0953568 -0.272454 -3.42414e-19)
(0.0669498 -0.883216 -4.22394e-20)
(0.124821 -0.70967 3.01671e-19)
(0.448736 -0.688988 5.1115e-18)
(0.459945 0.573026 5.16243e-18)
(0.945677 1.63508 7.18468e-18)
(0.0353462 -0.491917 4.46875e-18)
(-0.0738985 -0.288375 1.54266e-18)
(-1.22868 0.0706609 5.66252e-18)
(0.624221 0.822048 1.75403e-17)
(0.0585331 -0.171141 1.0936e-18)
(-1.49776 -0.862921 -1.25648e-18)
(0.706788 0.255588 5.40007e-18)
(0.31162 -0.517458 -6.85838e-19)
(0.00680856 -0.170454 3.0078e-19)
(0.157056 -0.0855492 1.44944e-18)
(-0.393589 -0.0427893 2.58152e-19)
(0.573285 0.365173 9.84315e-18)
(0.0862521 -0.285334 1.14888e-18)
(0.17136 -0.0340459 2.9299e-18)
(0.0751979 -0.841347 -1.39059e-20)
(0.226572 0.472596 4.64016e-18)
(0.157805 0.872503 3.97589e-18)
(0.236332 0.0213132 1.26614e-18)
(0.559165 0.540318 9.21896e-18)
(-0.210793 0.456395 1.7085e-18)
(-0.532121 -1.26635 2.18382e-20)
(0.409638 0.392257 3.61687e-18)
(-0.747584 -1.01805 -3.7495e-19)
(0.195844 0.0630955 1.91912e-18)
(0.340463 0.480275 4.86994e-18)
(0.0602128 -0.134497 6.50848e-20)
(0.0240327 0.938104 3.10828e-18)
(0.574192 0.102107 -1.60678e-19)
(0.797062 1.17854 1.5356e-17)
(-0.047945 -0.262265 1.22098e-18)
(-0.193019 1.11137 3.09799e-18)
(0.0272461 -0.146407 -1.27067e-19)
(0.134274 -0.631072 -4.46362e-19)
(0.514095 0.716691 8.30911e-18)
(0.042213 -0.167777 1.16232e-18)
(0.180422 0.0596341 1.78031e-18)
(-0.248725 -0.298924 3.66308e-19)
(0.132907 -0.54484 1.00242e-18)
(0.0936415 -0.784225 1.58795e-20)
(-0.416277 1.12624 1.50249e-18)
(0.0857047 -0.294521 1.31224e-18)
(0.471194 0.687899 5.91495e-18)
(-1.54344 -0.570826 -1.41184e-19)
(0.103083 -0.11505 2.17544e-19)
(0.197818 -0.032897 1.07322e-18)
(0.314489 0.115053 1.38247e-18)
(0.109383 -0.690447 4.91937e-19)
(0.513683 0.863287 -2.10231e-18)
(0.407695 -0.495169 7.75167e-19)
(-0.638006 -1.2849 -3.35894e-19)
(0.0914304 -0.759772 5.79291e-20)
(0.96722 0.956665 6.51076e-18)
(-1.27919 -1.18917 -2.58912e-18)
(-0.336547 -0.222664 -1.77659e-19)
(-0.0235527 -0.234739 5.35954e-19)
(-0.134141 -0.971868 3.33714e-20)
(-0.18016 -1.01154 7.50575e-20)
(-1.43125 0.43845 3.92331e-18)
(-1.04338 0.977922 3.21324e-18)
(0.430168 0.525647 4.24964e-18)
(0.831502 1.91492 9.24116e-18)
(-0.77786 1.08406 2.26491e-18)
(0.145961 -0.236447 3.33533e-19)
(-0.0307285 -0.905118 -1.71135e-20)
(-0.177111 -0.293934 5.87879e-19)
(0.0842565 -0.255605 -4.65625e-19)
(0.695883 1.88075 1.27912e-17)
(0.362608 -0.686487 5.8242e-18)
(0.670146 0.747766 8.07492e-18)
(0.0419599 -0.137907 4.28727e-20)
(-0.370439 -1.05173 2.85292e-19)
(-0.0085563 -0.224445 4.96594e-19)
(0.113576 -0.618657 1.50663e-18)
(0.260354 0.0304612 6.22618e-19)
(0.339898 0.224296 1.60938e-18)
(0.0884718 -0.731946 3.58422e-19)
(-0.0019205 -0.158295 1.12674e-20)
(0.206147 0.355257 3.78965e-18)
(0.565214 0.717741 -3.22436e-19)
(-0.339898 -0.135705 -1.7892e-20)
(0.0333678 0.232931 2.41536e-18)
(0.0696274 0.457246 1.55996e-18)
(0.62303 0.810256 8.7363e-18)
(-0.00976997 -0.868432 -9.24115e-21)
(0.147783 -0.0811813 5.19296e-19)
(0.0787355 -0.123052 9.56408e-20)
(-0.280287 -0.241376 1.8417e-19)
(0.0648767 0.60639 5.1039e-19)
(0.169009 -0.231933 -3.56778e-19)
(0.412622 0.755319 6.07444e-18)
(0.492732 0.782609 1.59646e-17)
(-0.0943135 0.827508 4.89349e-19)
(0.0134032 -0.147557 -1.98966e-19)
(-0.444906 -1.07355 2.99877e-19)
(0.340915 -0.0367266 2.50397e-17)
(0.105416 -0.609789 2.18252e-18)
(-1.66675 -0.314816 1.17828e-18)
(0.105583 -0.679846 6.82985e-19)
(-0.100624 -0.264824 5.06983e-19)
(-1.36972 -0.99354 -2.27291e-18)
(0.0163286 0.228434 2.51217e-18)
(0.0185341 -0.26805 2.84413e-18)
(-0.332029 -0.0695647 2.20743e-19)
(0.582967 0.628949 -4.16591e-19)
(0.0380013 -0.817276 4.71145e-20)
(-0.22241 0.865846 1.14174e-19)
(0.00935022 -0.202032 8.35744e-19)
(0.114862 -0.266624 1.51596e-18)
(0.294814 0.118506 7.87636e-19)
(-1.28942 0.831519 1.13666e-18)
(0.404141 0.639792 4.6578e-18)
(-0.994172 1.00461 1.28023e-18)
(-0.045932 0.166316 6.54128e-19)
(-1.6138 0.198744 1.69792e-18)
(-0.000399416 -0.147203 -8.20817e-20)
(-0.31263 -0.161303 -1.46595e-19)
(-0.511338 0.967878 -1.96321e-19)
(0.0835583 -0.719948 1.06448e-18)
(-0.267887 0.0942971 2.67197e-18)
(0.3947 -0.782698 5.71065e-18)
(0.0474526 -0.280677 8.87198e-19)
(0.183731 -0.041554 -4.36258e-19)
(-0.078229 -0.249055 3.16613e-19)
(0.119599 -0.0955608 6.77223e-19)
(0.0448028 -0.792532 2.07312e-20)
(0.372593 0.336301 1.97117e-18)
(-0.229095 0.47383 5.68032e-19)
(0.982612 0.670455 5.65243e-18)
(0.106589 -0.269322 6.47806e-19)
(0.110629 -0.26662 7.21709e-19)
(0.809915 1.13146 1.64546e-17)
(-0.28077 -0.414087 4.49484e-18)
(-0.312657 -0.0917063 2.3038e-19)
(0.429816 -0.263435 5.06814e-20)
(-1.67247 -0.0623536 1.02938e-18)
(-0.171954 -0.533703 3.45633e-18)
(-0.688899 0.898609 -2.28724e-19)
(-0.719676 -0.82734 7.50664e-20)
(0.0605494 -0.764266 2.79292e-20)
(0.324325 0.206595 8.35929e-19)
(-0.0407337 -0.222951 -5.14624e-19)
(0.574353 0.928836 6.85394e-18)
(0.235072 0.0132116 -9.38888e-22)
(-0.194282 -0.248339 -8.76285e-19)
(0.0716465 0.66858 3.85955e-18)
(-1.513 -0.742002 -2.87303e-19)
(0.338572 0.827549 5.22905e-18)
(0.113407 -0.277337 1.05786e-18)
(-0.0945511 0.57738 2.32288e-19)
(0.718488 0.791406 -9.10288e-19)
(-0.139619 -0.888924 4.55325e-21)
(0.155185 -0.0591055 -8.11397e-19)
(0.413586 0.794304 4.68565e-18)
(-0.150665 -0.246282 -3.98205e-19)
(-0.078786 0.437485 5.54536e-19)
(-0.0241689 -0.149014 -8.8478e-20)
(0.092161 -0.667933 8.94758e-19)
(0.611258 1.74906 7.75345e-18)
(0.0292325 -0.0577682 7.68879e-18)
(0.955961 -1.11215 5.57806e-19)
(0.062929 -0.58613 3.07467e-18)
(-1.08726 -1.10122 -1.90774e-18)
(-0.204421 0.369885 8.59828e-19)
(-0.322977 -0.928013 1.61578e-19)
(0.102333 -0.275096 -1.74816e-19)
(-0.0286846 -0.210919 -1.77381e-19)
(0.0212009 -0.130212 -2.8834e-19)
(-0.268844 -0.914558 1.03622e-19)
(-0.158675 0.638465 1.66114e-20)
(0.260883 0.0778857 4.16249e-19)
(0.0605001 -0.751901 2.73956e-19)
(-0.106747 -0.863985 -3.61095e-21)
(-0.965732 0.309532 1.41839e-18)
(-0.197157 0.357891 1.86559e-19)
(0.0470087 -0.121744 1.16027e-19)
(0.537374 0.577624 -2.45671e-18)
(0.551442 0.596782 7.6563e-20)
(0.3594 0.416318 2.13994e-18)
(0.103229 -0.222565 3.79611e-18)
(0.0714311 -0.704685 1.12507e-18)
(-0.638615 -1.03124 1.98343e-19)
(0.0978844 -0.275443 6.76614e-19)
(-1.59513 -0.484072 -3.78336e-20)
(-0.331057 0.742833 1.5105e-20)
(0.200031 -0.0149534 -2.6272e-19)
(0.068467 -0.576099 1.72979e-18)
(-0.0319887 -0.827765 1.98554e-20)
(0.114029 -0.272985 7.43212e-19)
(-0.395726 0.0249531 1.25307e-19)
(0.0798552 -0.105221 9.57037e-20)
(-0.0931313 -0.222478 1.33043e-19)
(-1.54371 0.145044 1.63841e-19)
(-0.249114 -0.190736 -1.16645e-19)
(0.34402 0.293787 8.98327e-19)
(0.145999 -0.00500613 2.49595e-18)
(-0.00584171 -0.135729 4.0154e-21)
(0.842652 1.22949 1.57846e-17)
(-0.462326 -0.909665 3.84739e-19)
(-0.211563 -0.201235 -2.90471e-19)
(-0.953338 0.795603 6.3938e-19)
(-0.0155625 -0.806746 5.51198e-20)
(0.229281 0.0420573 4.25713e-20)
(-1.25898 0.682015 2.21439e-19)
(-0.451094 0.733357 6.66322e-20)
(-0.074622 -0.212191 8.24127e-20)
(-1.23135 -0.866355 -6.51964e-19)
(0.056901 -0.736687 9.47964e-19)
(0.11412 -0.078571 2.10134e-19)
(0.177825 0.871054 2.95338e-18)
(0.288053 0.142968 7.73042e-19)
(0.449077 0.944905 4.18396e-18)
(0.0883344 -0.657685 1.23955e-18)
(-1.45418 0.269373 -7.96409e-20)
(0.0223846 -0.782349 -6.63997e-20)
(0.209448 0.817068 -2.40145e-18)
(0.465187 -0.748946 3.93857e-18)
(-0.3695 -0.0239238 1.51931e-19)
(-0.167763 0.659564 1.08116e-18)
(0.379552 0.51682 1.97265e-18)
(0.845145 0.507894 -3.82813e-18)
(0.0110659 -0.12978 -4.31653e-19)
(-0.251163 0.591815 -1.90403e-19)
(0.25625 0.0993112 6.95445e-19)
(-1.47954 -0.19891 9.36987e-19)
(0.0327982 -0.122955 2.05111e-19)
(0.634192 1.08498 6.41578e-18)
(-0.682714 0.720958 -1.73396e-19)
(-0.149346 -0.199255 3.67033e-19)
(0.0699922 -0.69388 2.23135e-18)
(-1.31032 -0.729057 -3.34016e-20)
(-0.175711 0.48218 2.15855e-19)
(-0.00263815 -0.128068 2.24925e-20)
(0.145019 -0.0453659 3.4361e-20)
(-0.267147 -0.125368 3.49273e-19)
(0.0623421 -0.649252 2.06863e-18)
(-1.35436 0.532109 6.70456e-20)
(-0.538657 -0.904867 4.12381e-19)
(-0.188417 0.534593 4.10461e-19)
(-0.259221 -0.570203 4.31805e-18)
(-0.0270706 -0.133035 -7.88967e-20)
(-0.270478 0.590427 -3.77302e-19)
(-0.240995 -0.142026 -3.24784e-20)
(0.341264 0.368495 1.03393e-18)
(-0.121376 -0.196748 3.55574e-19)
(-0.0414552 -0.188941 6.78572e-20)
(0.02836 -0.769549 -6.17025e-19)
(0.0605269 -0.110705 8.20386e-20)
(-0.0481543 -0.123487 2.92702e-20)
(0.56705 1.83762 9.70042e-18)
(0.181962 -0.00201865 8.38066e-20)
(-0.270286 -0.50315 3.60819e-18)
(0.0522498 -0.725752 1.38322e-19)
(-0.0512469 -0.141949 1.34203e-20)
(-0.0340809 0.198688 1.24851e-18)
(-0.243073 0.43727 9.48884e-19)
(0.0714477 -0.281013 8.73325e-19)
(0.0911653 -0.0879683 1.53762e-19)
(-1.439 -0.0385441 1.46786e-19)
(0.0131818 -0.566815 3.03048e-18)
(-0.216504 0.49426 2.81901e-19)
(0.294772 0.210268 4.45368e-19)
(-0.34762 0.605408 1.0927e-19)
(0.686892 -0.814754 2.84548e-18)
(-0.775087 0.65887 5.2509e-19)
(-1.05532 0.683986 -6.71664e-20)
(0.204901 0.0481659 -1.22331e-19)
(0.0397438 -0.754331 6.02184e-19)
(0.246703 -0.0109219 2.22236e-17)
(-0.616682 -0.748876 2.30955e-19)
(-0.241524 -0.831632 2.35201e-20)
(-0.201265 -0.823381 6.57648e-21)
(-0.108869 -0.811541 -3.69522e-21)
(-1.34176 -0.463173 -1.43152e-18)