/*--------------------------------*- C++ -*----------------------------------*\
  =========                 |
  \\      /  F ield         | OpenFOAM: The Open Source CFD Toolbox
   \\    /   O peration     | Website:  https://openfoam.org
    \\  /    A nd           | Version:  8
     \\/     M anipulation  |
\*---------------------------------------------------------------------------*/
FoamFile
{
    version     2.0;
    format      ascii;
    class       volScalarField;
    location    "0.2";
    object      alpha.water;
}
// * * * * * * * * * * * * * * * * * * * * * * * * * * * * * * * * * * * * * //

dimensions      [0 0 0 0 0 0 0];

internalField   nonuniform List<scalar> 
1924
(
0.00120405
1.5825e-05
0.000258501
0.000205978
1.5825e-05
7.01157e-06
6.56805e-06
5.33484e-06
5.25234e-06
0.00017934
5.35077e-06
5.20401e-06
0.0193055
4.52756e-07
6.69614e-17
7.53688e-22
0.000358982
1.18999e-10
0.461673
5.37499e-11
0.83219
1.8951e-09
3.02778e-08
2.32829e-11
1.2384e-10
4.03139e-13
9.7459e-12
3.0029e-05
0.000963166
0.999981
4.18812e-07
1.87772e-11
0.000358717
7.73954e-05
1.95532e-05
2.8256e-08
2.37514e-10
6.21976e-05
0.999998
4.00541e-06
9.95292e-12
0.472844
3.79006e-13
3.52773e-06
0.997964
0.00145942
0.999714
0.112082
0.999428
0.877045
2.83026e-14
0.226932
2.34606e-08
3.8098e-16
0.00185593
0.000125347
0.999389
0.917439
0.617246
6.8824e-19
1.04242e-06
7.07317e-20
5.60692e-08
1
3.67227e-16
0.000247764
1.31137e-21
2.52583e-08
0.00121401
7.54055e-09
5.82557e-06
1.87201e-24
1
0.999878
0.983919
0.000132009
0.000752346
0.353782
0.167144
4.47633e-08
6.74902e-06
3.84012e-14
0.999999
0.723609
0.00174088
3.24501e-10
3.66574e-05
2.98871e-15
0.898359
0.000242831
7.65507e-20
1.65798e-14
0.000393513
0.000247669
0.501917
1.47356e-14
0.00126181
4.83924e-06
2.13249e-17
6.3205e-06
0.000332651
0.715305
6.40419e-16
9.51767e-16
5.42557e-06
1.25445e-08
0.00350243
3.10951e-06
3.73257e-21
0.000246926
0.00118371
0.00288523
1.6076e-05
0.999998
0.184926
0.215776
0.000220706
7.19184e-26
9.15934e-13
0.000237879
0.0023923
1
0.860741
-2.29466e-06
5.76571e-24
4.79739e-07
0.000269333
1.69991e-06
0.00106997
1
0.00113939
0.00350435
7.0747e-06
0.999984
0.639962
0.000506351
2.44735e-05
0.00326526
9.11642e-13
1.66464e-05
0.000208557
1.02757e-21
0.999713
0.0227515
0.000548871
1
8.1578e-07
1.53395e-05
6.81498e-24
4.9882e-14
0.999999
1
0.000283079
0.00358235
8.61667e-06
4.69758e-07
1
2.31484e-05
0.00113939
0.99999
0.999981
1.20086e-05
0.00357347
1
1
4.86327e-06
5.19129e-08
1
0.000194862
0.00329394
1.58511e-05
3.16826e-05
6.35459e-09
2.26126e-17
0.000736373
2.43238e-06
0.999999
5.68321e-06
2.07023e-08
0.00277433
2.81783e-05
4.15047e-25
0.370205
3.85842e-08
1
0.726944
0.000339413
7.24544e-06
5.08746e-05
0.999749
9.0397e-05
8.19534e-06
0.000359712
0.000676918
7.24918e-09
1
7.32342e-09
0.000260009
1.75802e-05
0.0770625
0.0123003
0.123618
0.000304431
1.11478e-06
1.58511e-05
6.23621e-05
1.6321e-05
0.434358
0.00103877
6.21724e-06
1
0.00343522
1.20072e-13
1.26648e-09
7.68474e-07
0.000912119
2.08788e-25
9.30247e-06
5.61781e-06
1.69991e-06
8.49479e-06
0.999132
7.30761e-06
4.12095e-14
2.39353e-07
3.56274e-09
7.65542e-09
4.94526e-09
8.58836e-10
0.0466453
0.00266788
6.89758e-19
3.36391e-05
5.73571e-06
6.57251e-11
1
1.45864e-14
3.54936e-07
8.073e-06
1
4.1494e-29
8.14158e-05
6.62641e-14
0.418213
0.99977
0.336029
4.13307e-08
0.000950688
0.0589486
6.21056e-09
0.9995
1
2.0086e-10
0.00308582
2.40727e-05
1.032e-15
9.63643e-16
2.96481e-05
4.5257e-06
1.42248e-07
5.19129e-08
6.58624e-08
1.88059e-19
0.000969237
4.98067e-13
0.908753
0.00887558
5.17079e-07
0.000144633
0.999711
0.0211097
1
0.00277651
6.8609e-07
2.74339e-21
-1.09611e-13
4.42795e-09
3.94038e-11
0.00182308
0.013719
0.0605195
1
9.3673e-19
1.49449e-11
0.114855
0.979866
7.65012e-09
1
1.48968e-08
3.55545e-05
1.15391e-07
0.99997
4.17825e-12
2.01649e-16
0.375381
1
2.72051e-16
0.45289
2.05293e-06
3.61702e-17
1
1.74262e-05
5.90137e-14
2.19805e-30
8.88404e-10
5.3217e-09
0.00240363
0
4.19802e-06
0.873601
0.625117
1.13415e-15
5.69508e-12
7.03733e-12
2.12628e-05
0.000216474
1.28155e-06
1.95202e-09
1.1441e-09
1.13378e-07
0.998947
0.00276208
2.18259e-05
1
2.73945e-11
1.89593e-07
2.28806e-06
6.13136e-08
8.13951e-05
2.06173e-10
0.00282971
2.21637e-24
9.29419e-12
5.01171e-11
1.69991e-06
9.22752e-13
1.80805e-21
3.58118e-10
5.11574e-13
4.31603e-07
1.0137e-09
1
2.00739e-12
0.449422
5.40868e-18
-6.30379e-26
0.0145209
6.30538e-26
1.06108e-17
1.99293e-10
1.99904e-14
0.999728
1
2.72806e-16
0.642852
6.13337e-09
1
1.56533e-10
5.06689e-07
7.6446e-16
4.1671e-14
7.57565e-19
-3.26074e-16
3.50551e-22
2.0357e-13
2.32052e-07
5.68284e-13
0.0003308
1.53273e-13
2.92297e-11
-3.29582e-14
2.54267e-07
4.76727e-09
1.13523e-28
2.54503e-16
5.56629e-06
8.98281e-19
1.53277e-18
1.17057e-13
2.96881e-26
8.61222e-29
1.16395e-09
5.55103e-07
6.89365e-09
0.00101724
-1.27811e-13
0.0984185
7.95185e-23
4.67516e-16
3.30392e-09
1
2.46723e-12
2.13663e-08
2.92093e-26
1.48368e-12
8.87739e-06
1.57555e-16
5.59856e-13
1.61284e-11
1.09263e-27
1
2.84477e-06
0.14224
6.2427e-05
1
7.15415e-22
-8.89896e-15
8.12461e-28
2.9092e-08
3.45168e-15
5.12399e-15
6.42674e-14
2.11773e-11
2.56248e-09
6.86676e-15
5.42046e-30
-1.76722e-13
2.69948e-20
4.51547e-10
7.29198e-05
2.79844e-21
3.36053e-05
-1.0202e-13
0.44473
1.09997e-14
-2.70888e-15
2.0302e-05
0.999998
7.03001e-14
2.12291e-20
2.47662e-23
-1.35774e-13
4.11744e-20
1.8845e-13
5.24927e-13
1.57089e-19
-1.02273e-14
0.0493213
1.98335e-11
8.22067e-15
9.33134e-05
1.3388e-17
1.21491e-09
1
3.11851e-27
0.999852
1.6717e-16
1.91134e-06
4.96688e-09
2.48003e-24
3.64489e-20
6.29116e-16
1.42868e-11
3.09964e-12
2.80495e-18
1.97875e-10
-1.89812e-13
2.18848e-20
6.09937e-15
4.76186e-30
1.75776e-10
4.30139e-14
5.01717e-05
1.15824e-17
0.00438457
7.21683e-26
1.97652e-29
1.38984e-15
2.54597e-11
0.545499
1.53385e-16
5.14791e-15
0.970341
-3.15831e-13
3.19477e-06
6.90256e-09
1
5.21141e-12
1.356e-28
-3.84378e-29
2.77161e-17
7.38866e-15
1.19349e-25
3.7023e-31
2.05505e-15
1.86277e-16
1.07736e-20
5.10839e-30
2.78158e-22
3.70218e-05
0.00278069
1.57453e-22
4.10399e-17
4.52443e-05
1.24214e-21
-2.45019e-13
2.36532e-30
5.13659e-25
1.37553e-19
1
2.13739e-22
1.46878e-22
2.05776e-05
1.61224e-16
0.000258014
1.03437e-33
2.40655e-24
1.43594e-19
2.21464e-17
-1.53156e-14
1.17362e-09
-2.5049e-13
7.72083e-27
1.78202e-11
2.87435e-27
7.84965e-29
3.85443e-16
3.50938e-11
9.41893e-14
3.35048e-32
2.31579e-16
6.41699e-22
-1.18362e-13
-2.94752e-14
2.60966e-12
9.65272e-12
0.0274335
3.20194e-11
2.88616e-18
6.93444e-17
3.34998e-18
9.57183e-13
8.3904e-19
1.84776e-10
5.28837e-06
1.37415e-32
3.48095e-15
4.37523e-07
4.24046e-06
3.53679e-18
4.43316e-17
1
2.25073e-13
2.74077e-06
-2.43719e-13
3.15142e-23
0.999975
1
2.56357e-30
2.26897e-12
1.38226e-22
2.23086e-28
3.42691e-31
1.65478e-18
2.08378e-21
2.07346e-11
7.81619e-10
9.62008e-16
1
1
2.56738e-18
8.70871e-18
3.20056e-05
8.82922e-29
2.74284e-06
3.16583e-09
-7.88559e-14
0.000391608
0.999447
4.39742e-19
-3.06777e-13
6.57118e-26
3.92069e-22
3.63359e-28
2.11258e-05
2.09454e-30
1.15964e-11
1.84033e-05
1.39247e-22
8.43103e-13
6.40158e-18
3.37184e-32
1.32148e-13
1.46339e-30
2.03562e-16
1.68588e-11
6.28937e-27
-1.87036e-21
-1.83634e-13
1
4.84082e-20
3.99318e-20
0.999709
7.80242e-18
-3.15289e-14
1.31359e-22
5.21195e-32
1.10058e-07
2.05435e-34
1.0548e-19
1.39227e-19
1.08105e-28
8.38833e-18
1
1.18212e-20
3.61179e-14
2.3066e-12
1.49503e-09
6.69219e-07
8.91861e-26
5.72873e-20
6.01259e-24
1.57214e-11
1.64717e-05
4.53897e-19
8.89203e-32
3.56104e-13
7.64781e-06
3.78815e-18
1
-2.34366e-14
-1.6314e-13
4.16643e-07
3.67956e-20
1.0609e-17
0.313004
3.47673e-12
1.65234e-33
2.14375e-13
1.06058e-11
7.26655e-34
5.03238e-24
1.82774e-07
1.02584e-22
7.0165e-22
9.28772e-20
2.19374e-23
1
1.49407e-26
-3.34944e-14
4.54169e-30
9.53632e-31
2.77388e-20
3.64003e-23
2.80882e-35
2.59577e-27
7.14454e-20
-1.13052e-31
3.85052e-27
2.01469e-07
2.0955e-19
5.04858e-32
2.24277e-05
2.14557e-14
1.14237e-11
1.93198e-31
4.55565e-21
1.16395e-09
6.85245e-22
5.92357e-14
6.94643e-12
2.43792e-13
2.24341e-05
-1.45428e-13
7.60189e-34
1
8.54651e-22
6.7741e-34
6.52145e-22
2.50023e-22
6.86889e-21
-3.45644e-14
0.000122711
2.06173e-10
-3.31178e-30
-1.55574e-13
3.44848e-16
1.08249e-33
7.90098e-17
8.9079e-13
1.54913e-29
2.93357e-31
1.55789e-33
6.7853e-36
5.20757e-22
2.3492e-19
1.33245e-33
1
7.75992e-23
3.44673e-12
1
5.47888e-19
3.16522e-07
2.76632e-25
5.51112e-21
4.96559e-30
5.03183e-12
9.50337e-07
1.16979e-22
9.88656e-22
-6.51302e-14
6.80508e-24
6.49272e-27
3.35107e-06
1.78118e-19
2.04544e-27
8.87063e-32
4.5587e-26
9.92294e-23
-2.65198e-24
2.2703e-23
5.27852e-15
2.13393e-33
1
8.6147e-24
8.15341e-15
1.71364e-34
1.42363e-22
-1.2886e-28
0.281538
1.02992e-06
1.76704e-35
-1.52281e-14
6.30249e-13
7.41067e-36
6.11309e-06
5.63506e-06
1.60788e-22
2.83388e-06
-1.59806e-14
2.26119e-35
5.12372e-15
1
5.75691e-23
9.26428e-38
9.54208e-24
2.74243e-35
1.20602e-28
4.80282e-35
2.10889e-24
7.89031e-20
7.69696e-35
-4.89664e-14
7.57054e-20
2.45031e-06
1
1.05436e-23
5.67723e-15
3.64284e-25
-1.91513e-14
5.7917e-24
1.6682e-38
5.02099e-16
1
1
2.51347e-15
0.999998
1.26658e-22
1
8.14868e-37
0.978787
2.9514e-37
1.12584e-33
-4.86231e-14
8.44617e-24
1.00333e-18
4.58264e-27
2.34763e-24
3.87687e-16
2.85847e-28
1.01266e-35
1.58837e-27
1
-9.78997e-37
3.18685e-06
4.0587e-33
3.956e-26
8.34173e-26
1.56672e-13
1.29329e-34
9.5657e-26
4.61789e-09
6.61024e-20
5.42557e-06
4.28799e-13
0.0550696
4.49226e-35
2.53408e-29
-2.47757e-31
1
1.03895e-17
2.22235e-24
9.74448e-33
8.08541e-37
6.13791e-25
-4.6175e-14
2.87186e-31
3.60144e-08
1.00051e-31
1.03694e-22
9.77456e-08
3.55597e-06
1.03522e-25
1
2.83388e-09
5.04963e-33
1
2.93324e-37
1.9506e-38
3.95751e-27
0.000170301
4.57703e-23
1
2.73441e-19
1.40602e-25
3.00967e-21
3.77407e-37
1.15199e-18
5.42278e-26
4.31255e-12
1.18323e-26
1.44699e-16
7.89778e-36
-5.11859e-21
6.15802e-37
5.50231e-23
1.32541e-26
1.50587e-38
7.82266e-39
7.66569e-23
2.22841e-37
-1.89089e-15
-2.74975e-27
1.56648e-29
8.25171e-26
2.32699e-30
1.69668e-10
4.56272e-43
-5.82991e-15
0.905747
1.05586e-07
8.96617e-20
7.38464e-32
7.4994e-28
1
4.24309e-26
4.54585e-32
3.84346e-27
1.07499e-38
2.01822e-24
5.62321e-19
2.28553e-38
4.09863e-24
6.10438e-09
1.41696e-37
5.24922e-36
5.91574e-28
2.506e-27
9.32549e-22
2.85538e-05
3.89386e-40
1.22691e-33
3.96163e-38
0.9997
3.5446e-30
-3.57906e-39
-1.06088e-23
7.8718e-28
1.58013e-25
1.41938e-21
-6.23953e-15
7.52581e-27
6.75268e-31
4.08397e-20
3.96033e-28
0.999975
-3.26096e-16
2.99132e-27
0.514693
3.57778e-33
1
1.14736e-28
6.018e-39
0.386224
1.55144e-40
4.59467e-28
2.42277e-40
1.0955e-10
8.4824e-41
1.08395e-38
1.16185e-28
-7.79483e-15
0.109066
4.35682e-35
0
3.46764e-33
5.02134e-31
3.45256e-39
2.66194e-29
2.21902e-37
2.6882e-24
5.51421e-06
1.03197e-29
1.16289e-24
2.73068e-31
5.20951e-28
-2.89045e-38
1.87563e-26
6.37166e-33
9.9799e-37
3.94698e-32
1
5.14435e-31
5.9916e-16
-1.27665e-22
5.43402e-42
-2.70126e-25
4.84722e-30
7.58604e-31
1.69879e-10
4.37652e-05
7.90524e-40
2.8789e-29
1
2.94446e-21
-7.01548e-23
2.51962e-15
1.22032e-17
9.69969e-19
2.96782e-34
8.42748e-32
9.64415e-41
6.2081e-30
5.2961e-28
9.34005e-40
2.91865e-06
9.96293e-45
2.8745e-26
1.3155e-36
2.05191e-42
7.27732e-10
-1.3566e-10
2.12332e-34
2.37481e-08
3.54263e-25
2.84616e-39
5.06715e-31
9.7742e-42
4.66739e-27
1.78638e-39
2.29385e-30
2.80851e-30
1
8.75819e-30
1.31376e-41
0.113837
2.57081e-30
6.01814e-06
-9.84584e-26
7.58226e-41
1
-4.21511e-16
-1.01429e-30
4.98794e-13
1.75557e-27
-9.98079e-43
1.65534e-37
3.61892e-30
3.60545e-34
2.16177e-26
1.72936e-13
3.53259e-31
1.80375e-05
7.58806e-35
6.19883e-43
1
1.18724e-43
7.01465e-37
2.06801e-40
3.78368e-05
4.16784e-41
1.01199e-37
1.28506e-34
4.22939e-32
3.05371e-32
5.01404e-42
1.33058e-31
1
1
4.19449e-28
3.48966e-09
5.60881e-44
-2.01735e-16
9.18924e-33
1.43046e-30
1.69668e-10
7.9054e-30
3.42711e-43
3.31258e-45
6.36342e-27
3.17059e-32
2.45378e-27
9.8566e-32
5.07948e-47
2.11471e-32
2.73195e-06
1.11444e-40
7.57614e-13
4.30632e-31
1
2.92253e-33
2.96306e-31
1.72952e-42
8.13885e-41
4.26477e-31
5.99773e-27
5.55579e-43
3.39116e-38
1.62188e-33
1.83077e-32
0
1.24561e-47
-2.74384e-38
0.998605
1.73732e-13
7.61115e-15
7.90444e-44
9.07133e-35
1.16523e-45
0.999866
1
1
1.45762e-33
3.76243e-27
3.00393e-42
2.06542e-32
8.18579e-32
6.80378e-36
1.85814e-12
1
1.66407e-32
1.32921e-36
1.56291e-41
3.03358e-15
1.77279e-44
9.49481e-43
6.9915e-36
1.71264e-15
3.29704e-38
2.74866e-37
1.90001e-45
2.42667e-36
1.84543e-40
1.47539e-28
6.96229e-34
5.56375e-06
9.26457e-12
1.25664e-34
-7.96962e-43
3.98462e-46
4.46496e-30
2.14632e-39
3.80618e-40
3.98161e-34
1
8.47473e-27
6.79465e-14
1.67883e-44
1.75932e-34
6.37134e-16
3.48477e-29
4.24712e-43
3.74285e-27
9.4906e-36
-1.54643e-34
1.05221e-41
-2.02687e-46
-1.36216e-40
1.1016e-48
2.52441e-35
6.92432e-35
0.999383
8.70048e-45
2.57746e-36
0.718332
1.5148e-37
7.32974e-32
3.73585e-14
2.32349e-44
1.10326e-44
8.70532e-46
3.9922e-37
3.2407e-47
0.186706
0.999997
8.08257e-35
8.69953e-47
2.2422e-43
1.0207e-05
9.75834e-48
5.79954e-33
1.4446e-34
1.08881e-37
2.78876e-34
4.3882e-06
2.44757e-39
9.78357e-16
1.17418e-38
2.37796e-42
3.62875e-45
9.28202e-40
-2.30184e-34
4.9313e-44
9.46363e-20
2.2187e-19
5.78541e-12
6.73274e-31
2.39391e-36
-9.01434e-38
2.07835e-36
5.26129e-37
4.52565e-43
2.54101e-36
8.1505e-45
1.44527e-31
5.89979e-27
0.000762486
1.36936e-48
1.37115e-37
4.3882e-06
1.40875e-14
2.46798e-49
8.00266e-46
1.43778e-43
5.92025e-39
4.84915e-32
5.93065e-37
1.03167e-26
3.76242e-27
1.12831e-34
3.03792e-40
3.24602e-51
2.37635e-19
1.25946e-32
7.63299e-41
3.667e-38
4.27728e-05
3.49554e-37
2.24305e-41
1
0.000123857
2.83254e-49
3.35749e-15
3.14481e-45
9.47887e-49
2.73279e-49
-1.97115e-57
2.39662e-32
1.8728e-49
1
2.29354e-46
5.06595e-44
2.09349e-23
2.07674e-07
2.73951e-37
0.397495
4.15338e-33
2.82833e-48
5.51061e-14
1.92796e-40
-7.74052e-42
8.6112e-34
-2.68861e-39
3.9858e-37
3.95692e-14
6.88138e-47
2.5363e-49
1
0.998107
5.83722e-46
2.61496e-48
-1.60877e-40
1.65817e-46
9.94994e-36
2.83566e-49
3.25141e-38
7.584e-34
8.70161e-39
1.41886e-44
6.11535e-41
5.57829e-13
-1.16832e-38
4.12801e-44
1
1
3.05513e-51
1
1.31373e-39
4.64664e-40
6.73401e-42
5.53517e-50
-9.94745e-47
-3.81125e-50
3.67944e-34
-2.97466e-50
7.40694e-41
2.19608e-39
1
9.12391e-14
1.50716e-51
8.73051e-42
-8.87096e-50
4.76197e-36
9.18121e-47
0.0426391
1
7.0348e-53
9.71498e-41
0
0.000368712
1.35848e-05
2.0759e-45
7.63107e-40
1.75985e-42
1
8.76963e-46
1.08963e-38
1.43736e-40
1.75984e-15
1.36799e-12
3.12719e-27
8.87364e-40
-9.26264e-46
-5.27309e-39
3.3492e-53
1.26239e-52
1.54336e-53
5.79774e-36
1.2274e-51
6.01026e-39
1.07175e-50
6.31644e-49
1.49393e-52
3.27476e-33
1.08981e-34
2.37933e-47
6.74919e-43
5.77326e-51
8.31805e-41
1
8.00672e-50
4.67901e-42
1.10551e-50
1.52871e-43
7.99927e-50
1
1.01417e-26
1
1
2.73498e-52
8.39451e-48
5.24592e-45
2.83928e-25
1
2.21917e-41
1.01655e-45
8.11695e-43
2.23001e-46
2.86907e-36
-2.3121e-39
6.166e-46
5.7483e-16
2.58948e-37
2.7749e-43
4.34262e-14
3.07782e-42
5.75879e-49
2.69868e-45
2.01106e-38
8.344e-36
2.1033e-14
2.1752e-53
2.3912e-55
4.89049e-32
8.12723e-50
9.28873e-13
1.33033e-48
4.66565e-49
3.57759e-54
4.8415e-42
7.90992e-53
4.11613e-46
2.57775e-52
1
3.09551e-53
6.70655e-42
2.76754e-55
1.01481e-55
1.58362e-51
2.52338e-43
0.999958
7.27493e-49
2.99673e-42
1
6.62397e-51
1.01967e-51
1.1059e-13
5.20562e-54
0.872568
5.58436e-38
1.66344e-55
1.53153e-06
4.78945e-06
2.58072e-09
2.35214e-42
-3.53432e-39
0.710303
9.2777e-45
1.26888e-54
-5.99323e-54
1.26485e-16
3.09535e-57
1.18284e-54
7.90449e-54
1.44162e-45
2.26329e-52
1
1.46919e-56
-3.7428e-39
3.37857e-46
-2.72859e-54
-1.75936e-49
-1.45787e-41
5.91412e-54
4.61358e-51
1.509e-37
1.79781e-26
7.16612e-39
1.40711e-51
5.94177e-06
4.42832e-05
1
6.30573e-40
6.33506e-57
-2.67701e-31
1.70302e-56
1.57058e-56
1
1.0502e-55
5.72471e-44
1.6525e-57
1.02541e-50
1.80133e-16
2.09281e-07
8.56288e-56
2.23275e-57
5.23375e-13
7.31087e-05
7.31087e-05
2.57291e-37
1
5.24687e-58
1.06406e-39
7.90833e-47
6.64521e-51
6.43614e-50
1.68069e-57
5.81714e-51
1.99339e-56
0.999709
1.80363e-55
1
1
3.64992e-50
4.79601e-58
1
5.60718e-13
7.22391e-51
2.92993e-43
3.54059e-45
1.10742e-38
1.61432e-48
6.35273e-42
1.18551e-56
4.07266e-36
1
1
2.45478e-43
5.73405e-52
1
2.95786e-58
9.75208e-45
1
6.43185e-45
5.03166e-60
1.78037e-46
1.0367e-26
0.337686
1.78727e-47
5.1636e-46
0.99576
5.42757e-61
9.03165e-59
1
1.76985e-12
7.29077e-48
-3.29784e-51
7.23459e-42
2.3201e-57
5.47131e-52
5.19028e-59
4.0442e-45
9.53859e-60
2.42419e-58
3.01616e-09
1.26454e-57
2.45153e-40
2.35076e-59
1
-3.29619e-59
-6.75874e-40
8.6926e-56
2.78975e-39
0.0104061
6.30965e-32
1
3.3615e-48
7.29358e-52
-1.12114e-39
3.33896e-58
4.38142e-45
5.39503e-60
9.23146e-45
-3.86738e-60
-5.69781e-58
1.67899e-12
7.59657e-25
1.02233e-53
1.00818e-45
1.42516e-61
1.95139e-14
7.5734e-63
4.32539e-60
1.29771e-60
-1.54414e-60
1.51462e-42
5.95344e-58
-2.22749e-52
4.21645e-46
6.41394e-61
2.58718e-56
2.68038e-13
1.3566e-60
-1.81825e-39
1.19399e-53
1.65689e-48
8.95584e-62
1.64633e-55
1.74479e-51
3.36787e-46
2.35718e-61
9.12276e-47
2.20679e-61
1.017e-60
1
1.20758e-57
6.99946e-14
-4.87611e-54
-6.61943e-54
3.63821e-60
2.59854e-62
1
2.2489e-55
1
5.1886e-57
5.12085e-49
1.05537e-61
1
2.74679e-60
8.8364e-62
7.8172e-13
2.68515e-48
1
-6.2709e-68
1.13501e-63
1
1.04158e-39
4.25095e-36
6.90702e-09
5.2905e-63
-1.21515e-39
7.41716e-46
1
-1.07734e-39
-1.98306e-39
1.72392e-47
1.14246e-62
2.15256e-44
0
-3.66206e-59
1.24511e-64
-2.0093e-59
1.37917e-47
6.84994e-42
1.36994e-26
6.03771e-49
1.33252e-62
2.65331e-59
1.11258e-22
4.25653e-57
1
1.36737e-39
1.38394e-61
1
3.52547e-40
-8.47753e-65
5.15323e-42
-1.14027e-62
6.35495e-58
1.90016e-43
-1.83758e-62
3.42303e-65
5.02454e-45
-4.41573e-61
-2.77414e-43
9.72767e-49
1.43185e-46
1.01135e-47
2.58324e-56
1.63262e-10
-9.3729e-63
1.21472e-55
9.27704e-48
5.39155e-65
9.95203e-63
1
0.109905
0.108958
3.57875e-48
-6.6628e-54
2.54091e-65
-1.57311e-67
5.23498e-64
-1.99737e-64
1
3.13094e-63
-6.45577e-61
-7.54464e-64
1.31646e-63
5.09713e-49
8.34014e-47
1
1.85926e-48
1.79977e-64
3.19318e-65
1.06334e-39
4.74089e-22
6.52189e-81
-7.02353e-65
-2.31082e-39
4.20974e-61
7.90637e-42
4.26419e-44
-2.87529e-64
3.29447e-67
3.83405e-46
-2.89691e-58
1.1362e-49
2.72276e-69
1.14057e-47
1
8.14479e-63
8.14479e-63
6.73708e-67
1.04491e-46
1.44086e-23
-1.14731e-57
-1.09563e-66
-1.76543e-65
7.22556e-52
5.29922e-26
9.06416e-59
5.24416e-58
-1.37827e-66
3.36889e-46
5.2914e-59
-1.19695e-41
4.46023e-52
2.69166e-54
-5.0611e-42
1.01985e-48
1.45797e-55
1
1
1
-1.37926e-39
5.31153e-66
2.59727e-69
-8.77522e-68
1.47631e-63
-7.02795e-76
1
2.10821e-44
1.39699e-13
2.21223e-71
1.02229e-61
-9.34034e-61
-6.59214e-63
2.82183e-46
-5.35145e-69
1.68365e-64
5.02488e-59
1.71276e-13
1.39498e-13
3.57636e-14
1.69658e-47
-1.29124e-66
1.76716e-21
-2.05017e-69
3.28672e-46
7.56432e-51
-7.29926e-61
2.19173e-69
4.20221e-60
1
1.77887e-59
3.98118e-49
9.71808e-49
-1.20414e-67
3.32535e-64
2.13946e-44
1.67707e-59
-7.71402e-71
-1.19035e-69
4.41293e-62
-7.69138e-69
3.26196e-65
0
5.58033e-63
7.29358e-52
2.09172e-63
9.18023e-25
5.55392e-64
9.92423e-64
7.27269e-52
1.045e-73
1
-1.51378e-71
2.43812e-65
-2.02183e-73
2.5392e-22
-7.0844e-55
5.26077e-51
2.10423e-52
3.46036e-50
7.15388e-62
1
3.59221e-68
2.24422e-60
1.02632e-48
2.2371e-51
1.04062e-77
-3.26903e-71
1.67932e-64
9.03274e-49
-1.29335e-66
7.23206e-69
3.53032e-51
-5.0473e-71
0
1
1
-1.05744e-75
7.92457e-51
6.88122e-51
5.70601e-51
0.320485
-2.27403e-72
6.51207e-67
7.14849e-62
1.22826e-64
-1.88537e-73
5.834e-60
8.93419e-51
6.82578e-50
-1.27596e-77
-5.20609e-75
-2.17613e-69
-7.07318e-61
2.55394e-21
9.18037e-25
1.10989e-50
2.2344e-28
0
6.19696e-79
-2.35743e-77
8.32238e-47
-4.478e-73
1.2007e-61
-7.79864e-66
1
1
-5.2682e-63
-1.82553e-79
2.69955e-56
2.12869e-65
2.91692e-65
-9.0517e-65
1.29436e-52
4.46656e-70
2.81077e-52
2.51816e-62
5.26559e-58
2.24422e-60
-3.50985e-80
2.23482e-28
-1.02913e-70
7.00991e-14
7.90137e-55
-2.16746e-75
2.9021e-57
-2.12295e-74
0
-2.47334e-68
7.38403e-54
4.34704e-23
1.70208e-61
1.12263e-32
-2.06084e-73
2.40588e-63
0
-3.95e-82
-1.12013e-77
7.59358e-60
-8.48466e-64
2.52208e-62
1.25939e-67
2.40426e-51
3.39946e-66
-3.09479e-82
-2.99223e-82
3.62137e-63
2.63279e-58
1.12279e-32
1.49545e-71
4.53062e-70
-1.12427e-72
2.21506e-72
1.911e-38
3.49376e-73
-1.82731e-84
0
9.36484e-63
1.81848e-54
1.51188e-67
1.91116e-38
-1.93158e-87
-7.02889e-85
-4.73583e-80
3.63749e-63
2.82793e-64
1.47743e-72
-4.40487e-69
8.01643e-54
-1.85822e-71
1.28377e-45
1.28373e-45
-1.28575e-75
1.31356e-13
6.15686e-63
3.55232e-63
4.72169e-64
-4.4602e-65
2.26854e-63
1
1
2.82363e-62
1
3.0206e-66
1
1.88387e-72
-3.8327e-74
6.83074e-71
-4.41132e-69
2.24616e-67
3.79872e-57
2.19404e-77
2.62522e-75
1.68259e-52
5.70958e-54
9.54399e-68
9.54748e-68
1.3932e-66
4.40944e-63
2.01165e-65
1.56881e-72
1.56881e-72
6.99184e-66
1.80859e-96
1.08008e-90
6.47423e-88
1.10391e-84
2.2016e-79
1.69353e-83
1.57263e-72
6.23279e-66
0.142291
1.61126e-62
1.15794e-67
9.54748e-68
2.40426e-51
2.72335e-51
1
0.601216
1
3.21604e-55
8.63106e-48
2.44321e-11
7.99556e-15
2.29978e-46
7.00958e-51
0.903701
0.000238164
1
1
2.68187e-54
1
8.82378e-12
1
1
2.38636e-08
1
3.12715e-09
0.175078
1
1.05169e-18
1.03884e-18
1
1
1
1
1
1
1
1
1
0.293778
0.171892
0.682481
1
0.0520777
2.61441e-12
0.867065
1.46586e-09
1.44008e-09
1
1
1
0.999709
0.00188602
0.992785
1
0.9047
0.110331
1
1
1
1
1
1
0.960899
0.862814
1
0.0148215
0.28715
0.000826956
1
0.682481
7.14455e-10
0.64278
0.317082
0.882004
0.00159504
0.992724
0.181283
3.12715e-09
0.00106011
0.670543
0.992724
-5.18607e-06
0.616089
5.94809e-13
0.000102367
6.23558e-05
4.66823e-19
0.974432
2.28866e-12
0.990567
0.464241
0.110331
3.12715e-09
5.04471e-06
2.00416e-13
1
0.141828
0.999935
5.14779e-06
5.97589e-13
0.53174
1.55653e-12
4.86475e-07
1
1.61597e-08
3.27729e-12
0.99936
3.26504e-11
0.999162
0.991412
0.992662
1
5.85057e-11
0.999937
1
1.21001e-12
)
;

boundaryField
{
    patch0
    {
        type            zeroGradient;
    }
}


// ************************************************************************* //
