/*--------------------------------*- C++ -*----------------------------------*\
  =========                 |
  \\      /  F ield         | OpenFOAM: The Open Source CFD Toolbox
   \\    /   O peration     | Website:  https://openfoam.org
    \\  /    A nd           | Version:  8
     \\/     M anipulation  |
\*---------------------------------------------------------------------------*/
FoamFile
{
    version     2.0;
    format      ascii;
    class       surfaceScalarField;
    location    "0.2";
    object      alphaPhi0.water;
}
// * * * * * * * * * * * * * * * * * * * * * * * * * * * * * * * * * * * * * //

dimensions      [0 3 -1 0 0 0 0];

internalField   nonuniform List<scalar> 
2805
(
-5.11647e-05
4.70879e-05
5.49066e-06
-2.57944e-08
-5.11403e-05
-3.27775e-07
4.43983e-07
-6.43266e-10
-5.09615e-08
0
-3.75411e-08
1.08081e-08
-7.99705e-09
-4.50914e-08
-5.24188e-09
-4.26422e-09
5.44703e-10
-2.96196e-09
-1.15132e-09
2.83445e-09
8.85503e-08
5.31016e-08
2.61854e-09
-1.95992e-09
-3.01264e-10
2.76389e-09
2.78756e-05
0
-1.8302e-05
2.69283e-11
-1.3585e-10
-1.25384e-21
-3.81446e-19
1.16911e-20
-1.25947e-21
9.80365e-25
0
2.78923e-05
-7.02954e-13
2.77679e-11
-0.00114069
0.0012389
1.73814e-14
-2.4125e-13
0.00140348
0.0014755
-0.00324454
5.95825e-13
4.54621e-13
-1.00337e-11
1.20816e-11
-2.29024e-11
2.69776e-11
-3.31914e-16
1.75918e-14
9.74763e-15
2.74648e-14
-8.74973e-16
-1.05975e-15
2.81082e-16
1.37439e-14
-4.6502e-14
-5.58021e-08
-1.21305e-07
1.5693e-07
2.56128e-07
-4.09759e-08
-7.30599e-09
-0.00014881
-0.00106505
0.00121392
0
1.40958e-09
-9.14378e-14
1.01946e-14
8.33783e-07
2.9636e-06
-3.6612e-06
9.6643e-08
-1.36182e-07
-9.97719e-08
3.05753e-08
-1.49897e-11
4.77712e-12
1.69946e-13
-1.54734e-12
-1.3858e-08
5.4249e-08
0.000968149
-0.00111695
9.81573e-08
8.86138e-14
-9.68119e-14
0.00150929
-0.000331516
1.2109e-16
5.20655e-10
0
-0.000107318
0.000940522
-0.000829014
6.20272e-06
6.35702e-08
-1.17121e-05
0.00208971
-0.00199309
-9.66238e-05
0.000697253
-2.13963e-06
-0.000116062
0.00194826
-0.00316033
0.00121232
-0.00262437
0.00154056
0.00072389
3.10441e-13
-3.09603e-13
-7.85511e-16
0.0014706
-9.55501e-11
1.78984e-11
-5.50006e-19
3.10436e-13
2.41027e-06
-7.53978e-06
1.50905e-07
-5.46862e-07
0.000949186
0.000821768
-4.1284e-07
0.00137805
-2.70854e-21
2.05907e-24
1.57201e-23
4.99686e-10
-3.76002e-12
-2.59281e-24
-1.5931e-21
1.11762e-11
5.76637e-10
-0.00114757
0.000762793
0.00038478
3.40784e-19
-4.49511e-19
-1.84177e-06
5.41883e-08
-5.15143e-24
3.94613e-26
0
-1.13274e-11
-1.04371e-10
1.38032e-05
-3.12553e-11
1.58252e-11
-5.40832e-07
5.44007e-07
-3.8461e-09
-2.60406e-24
3.12815e-27
-0.000179423
-0.00144154
0.000376641
-0.000812812
-0.000497367
3.56882e-08
-7.2592e-08
1.59499e-08
-8.43286e-07
-2.84062e-07
-3.08407e-09
5.40252e-05
-0.000248855
0.000248419
-8.19987e-14
-5.84286e-09
2.62646e-17
9.85596e-09
8.30094e-17
4.35332e-18
-0.00105135
0.000509551
0.000541802
0.00203922
-0.000674693
7.85142e-06
8.27274e-15
-1.1461e-11
-5.45741e-07
-1.94188e-17
3.51281e-18
-0.000942047
4.80443e-05
-4.81897e-05
-2.92305e-22
7.9747e-24
3.43209e-18
1.00981e-18
2.26375e-06
-4.59509e-08
0
2.12007e-07
-0.00115191
0.00118561
-2.80553e-19
1.84339e-17
-1.81298e-06
1.27267e-06
2.13424e-10
-3.54582e-15
-5.85923e-20
-1.10986e-20
2.76635e-08
5.09278e-09
6.63533e-07
-1.93594e-07
-4.16847e-08
0.000760689
4.29193e-20
-1.83956e-18
8.91606e-20
2.86264e-20
-4.97289e-09
-4.98751e-08
-4.99216e-11
9.61549e-11
8.36822e-12
1.41789e-05
-1.38159e-05
1.52528e-07
-2.15942e-08
1.1338e-08
2.64548e-25
-1.38661e-23
2.39058e-06
-2.8817e-06
9.59325e-08
-3.39602e-08
1.54284e-05
-5.28036e-08
0.000457143
-0.00108109
0.000623948
-1.47152e-06
-0.000252807
4.82043e-05
-0.0004886
3.27102e-07
9.82067e-25
-2.06836e-27
9.6677e-17
6.2948e-16
-2.55945e-15
-9.30204e-07
7.56737e-07
9.2156e-06
-0.00384497
0.00366195
0.000183019
-0.00200698
-6.53703e-09
1.64532e-26
6.0532e-29
8.28328e-10
-1.04898e-09
4.93919e-10
7.41718e-07
-1.49593e-07
0
-3.22278e-09
7.76526e-06
-0.0011502
0.0030879
-0.0019377
-1.68983e-06
-2.46617e-07
1.45045e-05
-3.59215e-08
7.73788e-09
2.33351e-08
-0.000594222
0.00221484
-1.64493e-09
-1.60081e-07
-1.94263e-08
5.03662e-08
-1.17722e-15
2.76563e-16
-2.45636e-08
-1.90602e-07
-7.02798e-24
0.00137719
-0.00137719
-6.55404e-05
3.57765e-05
8.78198e-08
-1.56219e-06
-0.00189901
0.000748804
-2.23301e-08
5.70044e-07
2.5498e-29
2.48876e-26
4.52945e-18
-1.33458e-18
0.000118063
0.000391489
-0.00384497
2.10388e-05
-1.97425e-05
1.45542e-05
-4.21912e-09
3.75152e-08
-2.34057e-10
-1.20658e-09
0.00327592
0.000386033
-8.15511e-09
-9.20393e-07
6.08083e-08
-0.000814209
0.000133904
0.000680324
-0.000370544
-0.000710518
-3.4537e-08
1.31668e-05
-0.00391512
7.01485e-05
-0.000603958
0.000491605
0.000112353
5.65553e-09
-5.01359e-11
-2.89391e-10
0.00106606
0.00220986
-1.02805e-07
-9.82517e-08
8.52376e-06
-3.39536e-09
2.96686e-06
0
-3.19401e-08
-8.53825e-12
-4.29875e-11
5.55814e-22
-1.87155e-06
2.3317e-05
-1.9201e-07
-2.27474e-05
0.000843382
-1.08378e-08
7.68776e-09
5.79959e-12
-5.39048e-14
4.28499e-06
-2.29396e-07
5.88262e-08
-4.76982e-08
0
4.50435e-28
9.78926e-25
-0.000284985
0.000742923
0.000171387
-5.88735e-12
-1.27327e-10
-0.00122625
-0.00193408
-0.00020094
-0.00162235
2.05291e-05
7.47508e-07
-2.31619e-08
1.93316e-10
7.13515e-10
-1.80459e-07
-0.00121045
0.000500305
6.84223e-08
-1.37519e-07
2.88105e-09
-2.33898e-10
-3.3186e-08
1.27186e-07
2.2187e-13
-9.46787e-12
-0.00391512
-2.15137e-11
0
3.0776e-12
8.57955e-07
2.16878e-05
7.79158e-07
2.30059e-08
0.000109869
-0.000175268
-8.23651e-05
0
-4.2964e-07
-3.54224e-09
3.30117e-09
-6.48787e-08
2.83487e-08
-1.01737e-08
0.0014083
-0.00160325
-2.47726e-05
5.59504e-09
-0.00398445
6.93284e-05
9.11559e-06
-1.01946e-16
8.92733e-17
-3.92336e-16
9.62889e-13
-3.71238e-12
-1.7503e-09
2.49872e-06
2.62021e-29
-1.26631e-27
1.363e-09
2.76155e-10
-2.45667e-09
-8.91923e-10
-9.08785e-10
-0.000268461
4.78539e-09
4.66278e-18
-2.97373e-16
1.28781e-10
1.52551e-13
-9.98559e-12
-4.61362e-12
-2.36391e-10
7.8969e-12
-2.35134e-11
1.40767e-11
2.50473e-13
-1.43167e-12
1.5123e-05
2.44335e-05
-8.55361e-06
-1.87429e-08
7.30562e-24
2.4235e-22
-2.40824e-21
6.87354e-07
9.42439e-15
1.97261e-14
0.000133904
2.5148e-17
7.74032e-19
9.69741e-10
-2.82496e-10
4.71766e-10
-1.55937e-08
-0.00398445
4.51284e-28
-1.00409e-30
8.30635e-08
-2.7047e-07
6.59768e-17
-6.90287e-18
0.000164391
0.000320722
0.00162109
-0.000680369
0.00105551
-2.60616e-10
1.57847e-10
-1.09746e-07
-4.40493e-06
-8.46276e-13
-0.000243985
-0.00265799
-0.00132646
4.68226e-14
-1.85347e-13
5.72362e-06
-3.06062e-08
-1.5388e-07
-4.2006e-19
3.39661e-19
1.86591e-18
3.64113e-19
-1.16216e-08
1.21789e-08
-6.70881e-08
6.53107e-11
7.81646e-11
-1.66566e-10
1.73347e-10
-3.70329e-23
1.336e-22
2.74629e-07
6.257e-16
5.96135e-16
0.000667325
-0.000740923
6.2701e-06
-0.000339677
2.78931e-09
-1.04281e-11
-2.39227e-07
0.00128057
1.07141e-05
-2.92732e-05
-0.000485896
-1.37199e-05
-1.71441e-09
2.04436e-10
-2.72967e-10
-1.99356e-24
1.04665e-24
-7.37013e-17
9.30426e-17
1.58718e-12
7.65181e-15
-4.77543e-14
2.96177e-07
6.35894e-06
-0.000123072
-0.00265799
-2.43031e-21
6.61399e-15
7.7741e-15
0.000450768
-0.000319777
-1.50128e-11
2.95801e-12
-0.0030879
0.000429907
1.22522e-11
-3.50415e-12
7.97097e-09
1.00641e-11
-2.0362e-10
-0.000912431
-0.000204468
1.19097e-15
2.84086e-16
-1.63847e-19
2.4489e-19
-1.65571e-07
-0.000217564
0.000709169
1.05467e-20
-1.57564e-18
0.00170737
-0.00157715
2.19978e-10
7.89698e-22
2.38283e-07
7.34563e-17
4.24175e-20
-3.52241e-32
1.83496e-30
-2.43113e-12
3.8633e-13
-2.14731e-11
7.7821e-12
-2.82058e-12
1.85046e-05
-1.32821e-05
5.93627e-18
6.752e-17
6.21425e-10
-0.000885848
-0.000581833
2.48356e-20
1.4535e-18
1.42283e-15
-5.27219e-15
1.81449e-13
-1.97094e-14
-1.81425e-13
-5.27456e-08
1.08305e-07
7.77873e-11
7.68916e-13
6.27626e-12
-1.12267e-13
-0.0002425
3.63722e-07
2.16795e-06
1.22204e-08
0.000432285
-0.000649849
-1.26245e-13
-1.47833e-14
2.40014e-11
1.62907e-16
-8.7797e-12
1.39979e-09
9.34581e-12
-1.42441e-07
1.96599e-12
-1.71548e-11
3.75633e-07
-7.85462e-27
1.73434e-28
5.88024e-15
1.51936e-13
6.13492e-15
4.00075e-09
-5.01154e-09
1.07476e-16
-6.03713e-16
2.61437e-24
2.39101e-13
5.02782e-12
1.35993e-16
2.65353e-16
1.10083e-08
0
0.000138053
1.99146e-14
1.29477e-15
0.000288903
0.00119971
1.23586e-21
-4.6529e-21
-4.03078e-29
2.07298e-27
1.17915e-28
-9.70722e-29
5.54169e-22
-4.11291e-22
3.17123e-17
1.16794e-17
-0.000525394
0.000637747
2.70092e-19
-6.97268e-22
0.00160223
1.0584e-11
-1.07755e-11
-0.00122716
0.00262012
-0.00139296
6.97772e-14
-3.20031e-14
1.30231e-10
-7.74324e-10
-7.02865e-22
5.9644e-19
6.6255e-18
2.5024e-18
-9.31526e-22
7.79266e-23
-2.79088e-19
2.34695e-25
-1.40716e-26
3.61593e-17
2.98403e-10
1.34937e-16
7.97251e-08
-3.55251e-07
2.14976e-17
-2.08455e-16
1.7735e-13
-4.47111e-17
3.19855e-18
1.99013e-11
-9.75198e-12
1.4395e-32
4.50583e-28
-2.24855e-19
6.22195e-21
-8.36402e-09
2.30878e-09
9.86674e-24
1.48725e-22
2.7082e-16
2.11102e-17
4.05707e-29
9.09405e-30
3.32581e-32
-4.61152e-15
7.1143e-11
0
2.56743e-07
-1.19453e-16
-5.3935e-17
-4.06297e-06
6.58842e-27
4.16602e-20
2.94366e-10
1.22877e-15
-1.65875e-16
1.26354e-11
1.00415e-28
-4.70072e-29
7.47262e-17
1.74289e-13
-1.23797e-19
3.29591e-20
1.21156e-16
-7.6578e-14
2.04733e-12
8.57638e-31
-0.000932026
-0.000966981
8.36689e-09
-4.50984e-09
6.90838e-05
-5.31643e-06
-3.77989e-08
0.00106606
9.84361e-26
-2.439e-26
-1.55756e-17
2.13258e-16
-6.44406e-16
2.46164e-31
5.1175e-19
4.09605e-19
-5.49287e-18
2.69368e-17
9.4706e-16
1.52777e-14
2.16222e-14
3.51745e-12
1.17661e-18
2.73616e-18
1.38912e-33
-6.16981e-32
-3.10536e-16
2.71733e-16
9.98551e-23
-6.11065e-25
1.53009e-13
0
-4.47839e-13
-1.0084e-07
2.11834e-24
1.04457e-08
3.16075e-08
-8.5519e-17
-2.2692e-05
4.04659e-18
5.72484e-19
-2.96333e-18
-1.11655e-25
-4.12951e-08
-8.97382e-10
-0.00108081
0.000876343
1.6824e-16
-3.0238e-19
-1.51985e-22
5.84213e-23
1.57624e-27
-7.56735e-17
4.95542e-25
2.26226e-17
-1.25517e-17
-5.40447e-16
8.62602e-16
0
-7.98938e-18
2.00857e-05
-2.35782e-07
-4.84335e-05
3.62265e-12
6.45246e-19
1.60219e-08
-3.98528e-21
6.11601e-22
4.50337e-14
0.000597751
0.000111418
3.78533e-31
-2.52742e-31
3.84806e-20
1.42347e-20
2.20105e-09
1.74606e-13
2.48614e-28
-5.62454e-29
2.9562e-24
3.7516e-19
1.34348e-14
2.16999e-15
-7.80991e-14
4.16818e-22
8.27914e-14
-2.77608e-16
1.55609e-17
-2.98971e-24
1.26398e-24
1.37262e-18
7.16663e-19
-1.85999e-33
2.99384e-32
0
1.16162e-16
5.00243e-18
8.60822e-19
1.36423e-07
-5.39522e-08
5.70442e-21
1.18732e-06
4.79453e-05
7.73509e-30
2.54192e-31
-7.08207e-32
1.7877e-19
-1.97024e-18
3.19716e-14
-0.000518809
2.73832e-20
9.28697e-21
1.27143e-17
-4.17542e-19
0.000787265
-0.000887488
-2.48659e-16
5.16885e-11
4.27604e-09
1.63786e-12
-0.000992992
0.000813569
3.7484e-15
-2.5138e-16
7.94882e-33
6.69542e-33
-2.98252e-32
1.00541e-30
8.7078e-16
3.28655e-18
3.96942e-29
2.01667e-34
1.10686e-19
1.21352e-20
-3.83334e-23
2.31444e-24
2.81998e-33
-2.93216e-34
-5.68782e-25
4.1383e-26
-1.1694e-08
0
4.60115e-26
2.33854e-20
-1.40121e-07
6.885e-25
-3.54581e-27
-4.3207e-16
2.83816e-16
8.53821e-35
8.76064e-29
-4.02032e-29
6.28644e-24
-0.00025615
0.000688435
2.24017e-25
2.33352e-26
7.58038e-09
1.58049e-19
6.50896e-21
5.25941e-06
-2.75826e-36
4.66079e-35
-6.17371e-25
3.56337e-27
-5.77682e-23
8.20769e-24
4.20874e-19
-6.50902e-21
-1.84394e-17
-5.57286e-26
2.12697e-12
-2.30258e-12
-1.69985e-16
1.11718e-30
4.95525e-15
2.80795e-31
-1.79052e-31
5.40258e-33
1.63722e-20
1.00227e-14
3.27227e-14
1.75093e-35
3.1827e-20
-2.21772e-20
-1.45369e-27
-2.24993e-16
2.19184e-16
-1.9926e-17
4.78081e-16
4.10309e-15
0.000194257
-1.44316e-07
-3.72753e-12
2.14612e-14
1.55797e-22
5.74686e-21
9.43899e-21
-4.86722e-21
7.37536e-22
1.71171e-16
2.13304e-16
3.83242e-22
-1.42614e-13
9.19718e-14
1.23253e-06
-4.46269e-08
-6.35658e-35
2.2038e-34
6.07475e-18
-5.96814e-10
6.90779e-11
1.13387e-21
1.72363e-22
5.29934e-21
2.77078e-22
0.000460215
-0.000716365
-8.25524e-14
8.03279e-16
2.14966e-10
-3.80622e-16
2.59384e-17
-7.55523e-26
5.81581e-27
-0.000953401
-0.000127365
-0.000181346
0.000944139
-2.19563e-34
2.34519e-34
4.4616e-15
-2.00862e-15
1.33952e-26
4.0555e-29
-1.81387e-30
2.7946e-34
2.23427e-20
-4.01282e-22
-1.25271e-24
1.08267e-25
5.22799e-15
-1.43179e-14
4.22343e-19
-7.84484e-16
0.000198109
0.000490327
-0.000116648
1.35134e-22
6.44683e-22
-1.42503e-07
3.50868e-32
1.10276e-09
-1.02269e-11
-3.37338e-17
-2.83582e-09
-0.000165013
7.37902e-23
-1.95285e-16
-3.80353e-29
9.64319e-26
1.84112e-31
-3.18755e-32
8.51789e-08
-9.04063e-09
1.95127e-34
-1.87738e-34
-6.82732e-14
1.081e-14
-5.71556e-08
1.40417e-25
-1.06446e-29
1.10921e-15
-1.23348e-15
6.1691e-22
1.31243e-22
-1.67271e-36
2.86197e-36
2.4852e-16
6.11463e-34
-3.5744e-19
1.67131e-20
-4.2559e-15
-3.5654e-27
1.24416e-29
-3.42063e-26
5.82051e-22
-3.42632e-16
1.84702e-16
-0.000511796
2.4393e-24
2.17394e-24
2.08402e-23
0.0003504
0.00093017
-7.11942e-20
-2.32959e-17
7.61588e-26
3.24855e-36
-1.11158e-09
1.70203e-10
1.06784e-37
4.11568e-22
8.40217e-24
-5.74491e-22
-4.37538e-23
-3.17027e-30
1.5522e-21
-1.34069e-20
-0.000915733
0.000734386
4.04265e-22
-1.25152e-23
-8.77517e-19
5.42904e-16
2.6779e-12
2.51163e-17
-6.38974e-10
-5.47432e-10
-1.38319e-27
1.43312e-29
2.72068e-24
1.46832e-27
-1.06402e-15
-2.15323e-10
5.24627e-10
1.42068e-23
5.75065e-36
3.89362e-36
5.05765e-17
1.73019e-11
1.23687e-06
4.8408e-22
-2.8694e-22
0.000714016
0.000230123
-3.11465e-17
-6.47909e-26
-8.52087e-17
-3.68031e-10
3.27912e-23
1.29834e-24
6.05337e-18
5.81641e-22
-4.99002e-06
-1.57429e-14
3.03389e-15
4.28867e-38
2.11993e-17
-1.06492e-15
7.37541e-15
-1.21671e-36
1.7047e-35
-6.14003e-27
2.8411e-28
-2.6871e-09
1.38099e-26
2.94696e-25
5.11161e-24
8.51357e-28
0.000795859
6.1592e-29
2.31803e-30
-1.85746e-17
1.51837e-33
3.20788e-32
-1.09352e-33
1.37411e-23
-5.92415e-25
-1.94848e-26
1.80997e-27
4.43977e-38
-3.11064e-36
-1.46835e-27
2.6008e-30
2.2258e-24
2.07918e-36
3.48196e-33
5.14878e-31
2.17486e-23
-1.96044e-23
1.89317e-35
2.98844e-18
-1.29328e-15
1.90288e-34
-1.84595e-35
-3.9298e-24
3.96135e-25
2.11301e-13
2.60695e-26
3.50744e-18
-4.55235e-13
-4.87948e-15
2.45819e-17
1.97726e-08
-2.44436e-16
1.99984e-17
2.57074e-37
-0.000102164
1.49616e-25
2.8784e-26
2.38045e-38
1.97015e-23
-3.31681e-25
3.70281e-26
4.37001e-25
4.70123e-26
-6.74162e-17
7.45592e-17
5.32891e-08
-8.85722e-12
-3.45187e-33
-7.67869e-17
2.5411e-16
-1.70229e-35
2.93385e-34
-2.34042e-17
7.07576e-20
-3.2088e-15
6.87866e-17
-1.07093e-29
4.98867e-32
-7.04547e-33
-1.23591e-37
1.21932e-37
1.23916e-37
-3.97658e-38
1.82639e-26
9.70942e-21
1.03635e-37
-1.28442e-37
0.000893476
-0.000285735
-0.000607741
8.77913e-26
-2.9664e-32
-1.61707e-16
0.000331585
1.37113e-22
-9.55059e-10
-1.88994e-28
9.73699e-30
3.19521e-25
-3.19952e-30
6.09402e-33
-4.69108e-19
3.90926e-09
-1.13093e-11
4.75524e-27
5.27022e-26
1.40708e-26
-1.23703e-16
6.35836e-17
-4.67029e-27
1.70291e-27
6.06272e-30
7.81487e-31
4.22232e-08
-7.15447e-20
2.82192e-22
1.05216e-31
1.10347e-33
-4.60848e-35
1.12925e-29
4.74353e-26
3.33316e-25
-1.22008e-26
9.74745e-27
-7.50641e-19
6.31358e-37
0.000478723
0.000414754
-7.29998e-28
2.65651e-28
1.85511e-35
-6.05684e-37
1.05437e-26
4.13762e-27
-3.32244e-36
4.70012e-05
0.000147283
-1.12311e-09
-9.62701e-40
1.33945e-39
-4.58547e-18
-4.00361e-17
1.50854e-16
2.6221e-39
-6.04976e-09
-1.56099e-07
-2.87206e-22
2.18402e-25
8.96332e-10
3.4401e-11
-2.34389e-17
-5.01894e-26
7.88595e-39
3.86126e-19
-0.000905611
0.000238143
0.000667467
1.09521e-27
1.84419e-41
3.05234e-28
1.41183e-39
-3.15611e-33
2.91364e-39
9.33702e-40
2.51768e-29
-1.07108e-21
1.29403e-37
-8.00591e-39
-1.84435e-17
-7.42491e-23
2.36479e-23
3.32866e-23
2.47915e-10
-0.000637747
0.000749165
1.2358e-26
-8.22211e-28
-1.64437e-21
1.38724e-28
-8.09112e-18
2.87125e-27
1.32472e-28
-1.27892e-40
1.21468e-39
8.75648e-19
0.000191594
-0.000882769
0.000691175
3.26735e-19
-0.00105559
0.000928231
-3.12881e-24
0.000110929
-0.00104295
1.66576e-41
0.000911209
-0.000964599
8.13465e-41
1.1139e-37
-3.41913e-38
-8.45023e-17
7.76403e-18
1.61132e-28
-4.71404e-19
1.75868e-21
-2.93804e-30
2.01446e-31
8.34815e-28
-1.00698e-29
-1.62309e-16
7.5159e-19
-4.26159e-31
1.98906e-32
-6.47692e-40
7.08671e-40
4.88777e-32
-0.000255545
0.000745872
6.09463e-37
-2.13117e-38
-1.56299e-09
2.98824e-32
-1.85597e-36
1.19613e-29
2.12604e-30
-5.13244e-24
3.47624e-38
-7.49964e-31
1.14799e-11
-9.3975e-12
9.55217e-21
2.56907e-24
-1.38539e-07
-1.42351e-15
0.00018153
-5.43393e-07
3.20603e-38
3.70556e-33
4.17835e-35
7.10011e-33
-6.07904e-39
0.000690338
-5.7814e-22
1.17119e-28
-1.73965e-27
8.71589e-36
2.23305e-40
2.03209e-29
3.25993e-30
-1.66641e-17
2.24442e-34
-4.82427e-11
-1.14958e-17
1.07311e-10
1.71464e-35
8.28629e-27
-9.54329e-27
-6.38003e-10
7.55599e-30
2.3656e-30
-0.000976795
0.000860146
4.88714e-12
4.64173e-19
5.30257e-36
-0.000148383
7.63273e-42
8.03784e-39
-2.38002e-40
1.0655e-30
5.50426e-07
-5.56861e-08
5.76985e-26
-5.39314e-34
0.000434793
2.05642e-22
-2.14505e-22
9.57651e-27
-1.58497e-28
-1.6544e-21
8.18314e-24
-1.43792e-42
2.24834e-41
-7.51299e-19
1.10757e-21
1.22768e-30
-1.03087e-15
-5.36202e-15
-1.42256e-30
5.51437e-31
1.34965e-20
-3.36449e-36
7.26958e-39
-6.82417e-27
-5.95237e-41
3.98978e-41
1.91733e-26
1.74149e-31
2.12376e-42
-1.48038e-41
2.5742e-42
-1.75884e-24
-3.88037e-40
2.76665e-39
-3.17653e-18
-3.38758e-18
1.59037e-28
-5.82399e-30
-1.312e-32
3.98991e-34
2.32102e-30
7.75336e-31
6.29163e-34
7.12271e-14
-1.44001e-42
6.17891e-46
-8.97261e-18
-3.20661e-25
0.00213758
-0.00209302
-2.77435e-11
1.13167e-22
-2.82631e-25
2.16276e-34
1.79176e-35
-1.62963e-31
1.57072e-32
0.000982701
2.9909e-30
9.33004e-31
1.59124e-36
4.21865e-32
-8.80409e-42
5.13172e-43
8.78118e-29
8.84093e-19
5.97917e-41
-2.61067e-42
-5.23987e-24
1.03797e-25
1.12976e-12
3.79356e-42
2.14709e-38
-1.20192e-39
4.67655e-33
5.86776e-30
-3.80748e-31
-1.10609e-21
3.24464e-24
7.46713e-08
-3.78302e-08
2.03109e-44
-5.18868e-38
9.23958e-42
0.000998753
-8.70136e-05
-7.53264e-31
1.24199e-33
2.39143e-40
-7.4313e-42
-2.89378e-29
1.67825e-32
-3.66185e-27
1.65253e-24
-1.839e-18
2.60878e-30
2.39328e-33
-1.83634e-33
2.01056e-34
3.8343e-31
-1.95878e-32
-5.67969e-05
-8.36391e-20
1.85439e-29
1.51197e-06
-0.00144334
-2.56877e-37
-0.000869594
0.00076743
3.83402e-32
1.69157e-43
-2.44875e-05
5.46565e-43
-1.29326e-40
1.14041e-31
6.71767e-33
6.57338e-44
6.05008e-14
1.91282e-44
4.41684e-43
1.98394e-32
5.55294e-35
-1.21549e-17
2.41771e-19
0.000258764
-0.000380952
5.27209e-38
-1.35951e-47
8.71588e-36
1.02015e-41
1.45946e-36
6.06263e-34
-2.82549e-34
-2.6061e-43
2.26337e-43
-1.41373e-34
-2.7643e-39
3.41914e-38
-1.76723e-24
3.74298e-27
1.06137e-08
2.44321e-33
-3.13468e-24
5.69603e-27
-2.06533e-34
1.13316e-35
5.94841e-33
-5.8334e-39
1.5455e-41
-6.75667e-27
1.45338e-29
-1.28918e-35
7.24428e-37
-8.66804e-41
1.16465e-36
-4.85636e-05
1.4723e-34
2.02608e-18
-2.38086e-18
-4.07943e-32
2.61909e-42
-6.91106e-44
-1.0433e-30
8.10619e-35
1.61249e-34
2.04281e-13
-2.34375e-13
-1.0604e-09
1.10161e-43
4.53154e-34
1.06524e-34
-0.000100937
0.000856851
-0.000755914
3.89757e-24
-3.66923e-30
-1.09053e-30
1.64479e-18
2.64063e-37
-9.67376e-39
1.64262e-35
2.27335e-45
-6.74801e-35
9.488e-35
-4.15603e-31
2.13479e-32
7.47045e-42
-3.55915e-43
1.00693e-09
-6.42251e-48
2.46704e-46
1.78808e-30
-2.64437e-30
2.71252e-40
6.27039e-46
8.3331e-13
-3.3949e-16
-5.02608e-12
4.79651e-12
3.5769e-24
2.07542e-13
2.77517e-25
-2.59931e-28
6.34185e-43
3.13905e-36
1.97684e-45
-3.6764e-27
5.93126e-30
-1.36336e-43
9.81254e-44
-2.51319e-34
1.37399e-34
4.06257e-35
2.65092e-30
-4.45238e-32
6.61684e-46
-4.59197e-45
-8.61042e-38
-4.63576e-30
-2.46502e-46
3.54255e-45
0.000257939
0.000487933
-5.89128e-19
-8.50962e-19
4.46281e-32
-1.57415e-33
-2.06913e-15
-6.76024e-17
-2.22345e-29
6.41854e-32
6.93766e-44
-1.91367e-45
8.76059e-41
4.73229e-35
2.19727e-35
-3.90948e-37
9.41795e-39
-2.02088e-30
2.11924e-16
-5.91978e-17
1.58148e-33
-8.74772e-35
3.50811e-11
1.52904e-38
-1.47049e-44
-9.44748e-06
1.80037e-44
-1.47743e-45
1.02173e-38
8.59841e-41
1.10666e-44
-1.92401e-44
8.52632e-07
8.28607e-46
1.50341e-41
-1.41848e-34
1.25478e-37
8.78302e-35
-4.8625e-36
-1.09752e-35
4.3103e-37
1.92944e-44
-6.35313e-46
7.90535e-37
0.000895455
-0.00020428
-0.000853966
0.000705583
1.34742e-32
1.44563e-11
1.46596e-47
-4.01854e-20
4.8858e-36
-2.27547e-37
4.11545e-34
4.97879e-13
5.07123e-34
1.23741e-34
1.23433e-47
5.72367e-48
5.26951e-50
2.90501e-30
4.29008e-37
-3.19575e-30
8.22372e-31
5.52771e-37
3.02466e-50
6.00259e-36
-6.58257e-44
1.44756e-44
-1.58534e-14
3.90461e-34
-1.50877e-34
0.000560955
0.000334501
1.98785e-37
2.32503e-39
-4.52247e-33
-1.54658e-45
6.98109e-47
3.58388e-43
-1.78852e-44
3.42497e-34
6.5354e-30
-8.29165e-30
1.06726e-46
-5.05929e-42
2.96318e-37
1.43346e-36
1.6828e-37
1.55513e-41
-1.90776e-43
-1.3651e-47
1.85858e-50
-8.61636e-42
0.000911804
2.52949e-17
2.31682e-17
-6.28147e-18
1.92133e-45
-7.75875e-47
1.48822e-38
6.36957e-46
-1.51571e-47
-0.00111292
0.000631105
0.000164754
-1.43977e-38
4.34578e-31
9.68758e-47
-4.07708e-32
8.28606e-36
-8.12743e-34
1.03126e-39
4.03908e-16
0.000672937
1.0853e-37
-8.68376e-38
6.81643e-40
2.62362e-46
-8.78869e-18
3.26233e-48
1.66946e-47
-6.48667e-39
3.10555e-40
1.90158e-18
-1.84095e-18
-1.38878e-40
1.15914e-41
8.82405e-42
3.70417e-49
1.11787e-40
-8.76118e-41
1.6351e-43
-4.59852e-30
4.53601e-33
4.38556e-39
1.76503e-39
1.13001e-08
-1.17002e-14
1.32933e-39
-6.87092e-51
1.12187e-49
-4.15772e-34
2.18516e-34
5.11543e-42
-2.24013e-43
-5.7724e-42
4.1646e-34
-6.85216e-36
-8.65359e-05
-4.12902e-36
5.40854e-17
-1.47713e-44
2.08213e-47
-1.70482e-38
1.77672e-39
1.46413e-18
-2.41695e-30
9.36771e-34
-4.12918e-47
2.20483e-47
-1.42436e-36
2.72233e-41
6.86288e-36
-2.38575e-37
1.70873e-45
1.52037e-47
-3.76492e-49
8.53241e-28
1.60662e-34
-9.24577e-52
2.75024e-50
2.39234e-37
-1.0582e-38
6.29373e-40
0.000873695
-0.000959191
7.7973e-47
-3.05118e-48
1.06072e-38
-4.98e-40
-0.00130158
0.00138191
9.32387e-40
-9.44399e-40
3.24397e-41
-5.76485e-35
2.29983e-36
2.45043e-17
-3.06014e-17
3.94963e-48
1.87001e-49
-1.48496e-45
2.97032e-48
4.99182e-40
-2.5941e-41
1.24279e-51
-1.03409e-51
0.000585639
-1.07367e-08
-0.000873797
0.000817007
3.39396e-40
3.23913e-40
1.43041e-50
-4.23499e-48
2.42873e-51
-4.52795e-33
5.96832e-36
3.5022e-38
2.59982e-41
-5.5353e-43
1.311e-38
-2.71718e-38
-6.57507e-11
1.02808e-08
-4.01306e-42
1.45303e-43
-1.92283e-18
2.35059e-19
1.72182e-18
-1.44383e-38
8.52088e-42
2.26761e-43
-1.12315e-44
1.27671e-49
-1.00348e-48
1.33695e-43
-1.09246e-37
2.16623e-48
-4.33925e-48
-1.21903e-22
2.9716e-34
7.09014e-42
-6.52537e-41
2.16124e-42
4.8784e-40
-2.80174e-40
5.09498e-42
5.12741e-47
-4.3881e-44
-2.74891e-50
3.2212e-49
3.0592e-35
7.54392e-30
-2.00155e-30
-1.98411e-07
3.7764e-49
-1.31331e-50
1.86504e-41
-1.52484e-09
2.75118e-17
4.44515e-54
4.347e-48
-1.13573e-49
-1.58881e-47
5.82597e-48
7.18665e-43
1.0978e-36
4.7953e-42
6.22716e-31
3.20749e-19
-3.20749e-19
8.11347e-34
-1.43601e-36
3.42425e-44
1.91012e-54
4.94747e-36
-5.81523e-42
3.44862e-44
1.15289e-43
3.36936e-44
1.09733e-08
-2.07376e-10
-1.95652e-41
2.03056e-42
2.25794e-45
-0.000817007
0.000768444
1.81417e-07
2.35163e-05
-2.38913e-05
5.43358e-53
-5.20395e-19
3.93048e-50
-2.65569e-51
8.17114e-54
-6.51054e-51
-1.95543e-43
4.76695e-45
1.06187e-37
1.13802e-49
-2.46471e-51
0.000315424
0.000357513
3.0655e-48
-9.57015e-50
-4.21713e-47
9.47659e-11
-2.40927e-16
9.6379e-43
-4.80371e-08
-0.0003504
0.000875604
-5.9652e-36
5.59833e-37
4.12868e-52
4.64964e-17
-4.73392e-17
3.09622e-46
-2.40183e-54
5.26468e-38
9.43053e-39
-9.50219e-43
-3.49037e-39
9.344e-52
1.33005e-50
-3.87645e-52
-0.00081378
0.0006095
-0.000610707
1.49469e-50
3.89035e-52
-7.18249e-47
-1.48504e-49
5.21217e-51
3.90931e-41
9.60926e-50
-5.04229e-51
3.54067e-38
-5.52399e-40
2.79527e-35
-3.05109e-35
1.26343e-44
1.60149e-44
-1.13687e-44
6.16248e-47
-7.94789e-44
3.87207e-45
1.78297e-16
-8.80218e-17
5.52849e-40
-1.83967e-41
1.85692e-48
-0.000108197
0.000758996
-0.000768444
-1.11218e-55
1.04043e-55
0.00092997
-0.000819041
8.0307e-45
1.84209e-41
-6.20535e-43
-4.46672e-44
1.34418e-45
1.41217e-53
-3.33467e-48
7.46573e-51
1.612e-54
-3.53767e-38
1.45889e-38
2.47059e-51
-5.51582e-53
6.21256e-43
-2.19353e-44
-4.86805e-43
1.49382e-44
0.000454055
-0.000554992
1.16291e-17
1.68312e-55
-1.79493e-55
2.19585e-44
-8.77934e-46
6.90983e-51
-2.14817e-54
-1.0624e-37
1.77131e-39
8.67319e-52
8.37824e-05
0.000889044
-9.44604e-56
1.76732e-54
1.12951e-46
3.0592e-35
1.7428e-42
1.84087e-07
3.6969e-47
-8.59348e-49
4.34541e-45
8.78672e-46
-3.20181e-47
0.000803356
-8.60169e-52
-5.24113e-41
-7.42471e-47
6.78617e-17
1.28716e-16
6.33066e-31
-1.06502e-45
2.52809e-45
4.99318e-51
1.40228e-42
-1.03686e-42
4.23465e-58
-4.21909e-55
9.33766e-58
2.15008e-58
-4.69667e-39
1.50495e-40
2.8595e-55
1.28855e-42
1.0616e-53
1.95231e-53
-1.5849e-52
5.52839e-53
-1.61169e-54
1.51436e-36
-9.47098e-41
4.45703e-40
-3.60663e-51
8.70903e-52
2.5913e-47
2.62022e-49
3.89023e-52
-9.42228e-54
1.60103e-44
0.000749165
1.04315e-53
7.19868e-46
1.09859e-55
1.82499e-47
6.8763e-52
-1.42842e-53
0.00067246
1.33461e-29
-1.12678e-29
0.000796732
-0.000235777
0.0019377
-0.00100773
3.79672e-56
3.06493e-52
-6.86885e-52
4.07959e-49
0.000510997
3.23378e-47
-1.90781e-45
1.90728e-45
3.3202e-49
4.23591e-46
-9.52887e-43
1.54481e-50
3.76554e-41
3.60212e-43
-7.35581e-48
9.06734e-49
-7.17954e-19
-3.47071e-39
3.72502e-41
-2.15116e-46
6.65275e-47
3.6413e-17
-3.38471e-17
-2.46073e-45
2.23531e-47
6.25863e-54
2.11835e-49
8.5371e-43
-1.98979e-42
-9.37128e-43
1.81016e-18
-3.63805e-17
1.43058e-53
-2.83504e-55
1.94871e-59
-2.37964e-59
2.40727e-35
-3.75966e-39
1.62121e-54
-1.58385e-16
1.95512e-16
8.63195e-49
-2.33496e-50
-1.76689e-54
1.60189e-53
1.63266e-54
-3.81372e-56
2.0072e-47
2.11744e-57
-1.80755e-56
9.84496e-52
3.07451e-56
0.00109799
-0.000643932
5.71448e-57
-2.21393e-48
-1.44215e-59
1.05524e-59
5.5825e-59
-5.05773e-51
5.78325e-54
6.65744e-50
2.2257e-49
7.23273e-53
-6.68433e-46
1.18973e-47
0.000278945
-6.52935e-51
4.46915e-54
3.11272e-56
-7.56923e-56
-1.52719e-17
1.12485e-57
3.62311e-42
3.34429e-43
-7.97915e-60
4.85755e-60
9.68247e-07
1.06095e-10
4.01303e-48
2.1768e-42
-3.12751e-43
-0.000525609
-7.56919e-47
1.8289e-48
5.01587e-59
8.01468e-60
1.41666e-58
4.0136e-19
-6.02535e-22
3.23078e-62
7.57434e-56
-1.13682e-57
1.19806e-58
4.66043e-52
9.45087e-54
-1.65105e-55
7.03495e-62
6.9996e-43
-2.6117e-50
2.84009e-55
-5.79157e-57
-6.61077e-55
-3.51944e-47
7.08299e-58
-8.84703e-53
5.24895e-41
8.45344e-30
-2.13509e-29
5.03685e-43
-8.64592e-52
7.95959e-55
-1.13644e-08
-0.000186103
1.99799e-45
-1.44688e-60
1.41582e-61
3.82373e-56
-7.08036e-58
5.44001e-60
0.000913919
2.16794e-59
-3.89985e-50
8.37604e-50
1.25818e-62
-1.08865e-53
2.7204e-54
2.22265e-60
-5.52727e-60
-5.13383e-60
5.62613e-59
9.51092e-17
-1.41861e-16
1.14727e-07
9.45357e-41
-2.14437e-45
0.000357538
-0.00091253
3.46313e-63
7.70187e-44
-2.76347e-49
1.94884e-50
-6.07493e-54
1.56224e-55
2.33957e-50
-4.58575e-52
1.13809e-57
-2.06367e-59
1.75302e-56
2.73091e-60
1.65611e-55
-3.91292e-57
-0.000768444
-1.23686e-55
4.88022e-63
0.000885398
-0.00052786
5.51063e-55
-4.21802e-49
1.09503e-50
3.37867e-42
-4.68662e-43
-2.23065e-48
1.63687e-50
1.26922e-42
-1.15249e-45
5.801e-57
-1.4109e-58
2.13675e-39
-5.86869e-43
-0.000433807
-0.00074728
0.000511503
1.50925e-44
-3.65436e-47
-2.65161e-54
2.16514e-55
0.00100773
-0.000728782
9.69825e-62
-5.2892e-48
5.02346e-50
-0.00067246
0.000564263
6.96749e-46
-7.4364e-49
5.52867e-60
-1.08573e-61
1.76747e-47
-1.48822e-50
-1.54188e-30
0.000657694
-0.00110722
-0.000204666
4.38509e-49
-6.52968e-52
2.40231e-52
0.000690357
-0.00199079
3.09539e-65
4.01208e-63
1.9801e-64
1.20755e-50
-1.17386e-52
-7.08416e-53
1.13252e-55
-9.36825e-43
9.00391e-46
3.9828e-61
-6.02847e-55
-2.17056e-63
1.68623e-63
1.18981e-50
-6.91411e-64
3.17424e-64
1.43223e-58
-2.73854e-60
3.15725e-13
-3.45921e-11
2.83039e-11
7.09363e-58
-9.10557e-60
-2.49458e-43
6.86278e-45
8.32363e-64
-1.37419e-63
-0.00013778
2.06629e-59
-4.02982e-61
-3.32238e-43
4.34252e-43
9.15662e-60
-4.83706e-49
2.65213e-05
0.000241467
4.99056e-52
-1.39151e-53
-1.85639e-55
-2.18531e-43
-3.8288e-49
3.94557e-62
-3.08067e-50
1.05552e-50
1.20299e-63
-3.34018e-51
1.08604e-61
-1.21734e-63
8.34116e-63
-7.71922e-28
-5.62555e-59
3.05358e-58
-1.63984e-50
1.62752e-49
9.86731e-50
3.21389e-63
-1.64622e-66
1.34022e-17
-1.69518e-17
1.39693e-66
-2.75917e-64
1.11317e-64
4.47587e-65
2.74363e-60
-3.94014e-62
-1.29484e-45
3.15091e-47
-3.92755e-57
6.99222e-60
-4.58227e-52
1.42931e-54
-3.53767e-47
1.08008e-49
4.03411e-61
-8.21299e-63
-3.91422e-58
4.54057e-17
2.93144e-66
6.05123e-43
-2.05492e-43
1.24345e-55
-8.76114e-59
4.75992e-53
7.39533e-53
8.0153e-67
-6.04707e-55
8.69435e-58
-1.40247e-53
-1.08671e-49
7.96534e-50
9.15274e-60
9.45606e-64
7.06944e-53
1.95853e-66
1.33746e-64
-3.01216e-59
-2.28896e-17
-1.03261e-56
-6.43317e-55
3.03568e-58
1.97393e-63
3.6956e-67
0.000384524
-0.000818331
8.67403e-59
0.00074147
-0.000356946
-9.08774e-59
-7.082e-53
1.79993e-65
3.70484e-65
7.87289e-66
-2.39973e-66
-4.77977e-51
4.16096e-53
0.000728782
-0.000487315
1.1602e-61
-5.45866e-64
1.21794e-63
-1.92714e-65
0.00021361
3.25762e-43
-8.70656e-48
2.35779e-07
-2.35664e-07
3.94647e-62
7.55638e-67
1.53383e-45
-8.23655e-50
-0.000307334
8.68429e-43
-3.75403e-44
7.50801e-43
-7.65484e-50
3.54061e-51
8.41932e-63
-1.3366e-64
-2.14208e-45
1.34653e-48
7.99103e-64
4.94522e-67
-2.9968e-59
5.39932e-62
2.04546e-68
-1.01224e-63
2.22749e-53
-1.79578e-50
-7.70184e-27
7.69951e-27
-9.8209e-54
7.81116e-53
1.51325e-66
-5.04379e-61
-8.83738e-26
1.70828e-26
-1.03595e-56
2.05916e-59
-0.000679987
0.000372653
-9.61691e-65
4.91187e-64
-0.000564263
0.000426483
1.33819e-64
-1.51117e-66
-4.96618e-67
-8.89947e-59
1.71237e-61
3.05797e-67
1.3803e-66
-5.58485e-69
-4.03896e-65
-2.68378e-71
1.701e-29
-1.701e-29
-3.52434e-51
1.58513e-52
-4.48617e-58
8.93057e-14
-3.62793e-67
1.25024e-62
-4.60446e-51
3.04514e-53
-5.16042e-64
6.37389e-67
2.32129e-67
0.00075174
-0.000394227
0.000521098
-1.4012e-53
2.41008e-56
1.81923e-65
-3.14954e-67
1.51272e-66
1.27293e-69
4.71146e-67
-2.53994e-67
-3.70162e-66
0.000487315
-0.000273705
-3.26226e-66
2.77494e-66
-5.03943e-61
1.7225e-63
6.3504e-71
-7.65886e-68
-5.13178e-67
1.35784e-66
-1.33408e-52
2.2397e-53
-4.84975e-49
9.01756e-51
-0.000168484
-9.07936e-68
2.49608e-67
3.95155e-69
-3.07961e-26
1.7163e-71
6.37808e-74
-5.91836e-69