/*--------------------------------*- C++ -*----------------------------------*\
  =========                 |
  \\      /  F ield         | OpenFOAM: The Open Source CFD Toolbox
   \\    /   O peration     | Website:  https://openfoam.org
    \\  /    A nd           | Version:  8
     \\/     M anipulation  |
\*---------------------------------------------------------------------------*/
FoamFile
{
    version     2.0;
    format      ascii;
    class       volScalarField;
    location    "0.2";
    object      epsilon;
}
// * * * * * * * * * * * * * * * * * * * * * * * * * * * * * * * * * * * * * //

dimensions      [0 2 -3 0 0 0 0];

internalField   nonuniform List<scalar> 
1924
(
0.129878
0.132425
0.1235
0.127556
0.124707
0.120558
0.128382
0.119141
0.127803
0.127181
0.123913
0.129831
0.0835667
0.129478
0.13718
0.136623
0.0838166
0.134097
0.127545
0.13631
0.0541726
0.132688
0.111689
0.138326
0.134301
0.134737
0.135158
0.139845
0.0934249
0.136117
0.0997545
0.134697
0.0847778
0.0909946
0.137351
0.123084
0.13415
0.103975
0.130257
0.0913776
0.134935
0.0663412
0.134853
0.106515
0.136851
0.0757542
0.12874
0.142656
0.04492
0.0426181
0.127873
0.0681323
0.130135
0.125767
0.0701446
0.137535
0.125939
0.141046
0.139775
0.134104
0.116339
0.136637
0.115165
0.128619
0.121483
0.143582
0.135121
0.122199
0.0765389
0.12316
0.0535218
0.135961
0.127239
0.1384
0.138635
0.0830431
0.144031
0.141404
0.142689
0.122902
0.143418
0.135076
0.13392
0.0517476
0.116058
0.12866
0.141971
0.137742
0.041249
0.05007
0.135447
0.134632
0.0705451
0.0801808
0.0532589
0.109877
0.143204
0.142789
0.134409
0.0758079
0.099743
0.0536758
0.134825
0.134563
0.0862085
0.145301
0.077829
0.0945278
0.133645
0.0712762
0.142863
0.0758333
0.126661
0.137056
0.143221
0.045709
0.104067
0.13603
0.133954
0.144214
0.112935
0.153044
0.0525382
0.0484439
0.135216
0.099596
0.0843903
0.14242
0.0717967
0.239107
0.142948
0.080249
0.658777
0.137519
0.0638485
0.0796477
0.0995102
0.077801
0.139284
0.130205
0.143009
0.135876
0.99152
0.837732
0.0994766
0.112706
0.0956593
0.0612876
0.133352
0.133383
0.125254
0.31107
0.0645488
0.081162
0.104039
0.102898
0.150417
0.105468
0.141331
0.988926
0.138009
0.0811926
0.0841701
0.161989
0.120621
0.0868807
0.102781
0.192047
0.144462
0.0728152
0.0857329
0.101352
0.145467
0.134275
0.141369
0.0723364
0.136192
0.250812
0.127753
0.0866302
0.102932
0.136002
0.142114
0.109876
0.0436949
0.133879
0.0665519
0.119477
0.144434
0.139929
0.0862156
0.106749
0.141489
0.0906816
0.108776
0.329336
0.129497
0.0751766
0.0836639
0.0724687
0.368986
0.137928
0.0835328
0.108157
0.105342
0.108998
0.0959037
0.0615876
0.0601136
0.613323
0.17162
0.0741475
0.139317
0.116611
0.124088
0.144357
0.132994
0.0905778
0.101312
0.142544
0.101077
0.133714
0.0901707
0.13896
0.114535
0.13213
0.139734
0.145172
0.118424
0.0745925
0.426707
0.134907
0.0905793
0.298448
0.134057
0.59855
0.139738
0.109602
0.090603
0.348157
0.135448
0.0938105
0.140226
0.0630368
0.690637
0.0551983
0.119302
0.141294
0.142593
0.145443
0.133758
0.2121
0.124193
0.076031
0.144492
0.138671
0.134367
0.102734
0.0997187
0.115417
0.111789
0.098557
0.133917
0.144036
0.134554
0.135818
0.0783908
0.145174
0.080573
0.406021
0.0794666
0.129006
0.0769745
0.121474
0.134554
0.143211
0.12436
0.135083
0.0785782
0.0797349
0.332414
0.52141
0.135367
0.12699
0.119068
0.140365
0.140634
0.240723
0.124338
0.103015
0.102119
0.128524
0.135656
0.139152
0.043889
0.123959
0.138225
0.0682005
0.144305
0.138695
0.430663
0.0823571
0.140382
0.13275
0.129635
0.132128
0.0929085
0.14084
0.112012
0.139021
0.0594083
0.133126
0.130876
0.134097
0.143652
0.0928268
0.113145
0.12854
0.110743
0.119759
0.131579
0.0827949
0.0865978
0.131553
0.13518
0.144273
0.114309
0.127748
0.138777
0.139537
0.0845088
0.134533
0.134298
0.133634
0.140644
0.135795
0.134124
0.115578
0.1331
0.0929291
0.144711
0.134609
0.134402
0.0690907
0.137596
0.135503
0.487867
0.134697
0.132498
0.134377
0.134365
0.707756
0.374489
0.139063
0.0644709
0.145113
0.0478222
0.133703
0.119212
0.0920173
0.135858
0.1379
0.139507
0.134227
0.134258
0.0988588
0.134275
0.0927579
0.13496
0.123179
0.140752
0.123933
0.131491
0.135369
0.134043
0.22217
0.137499
0.137141
0.134127
0.134657
0.134939
0.145072
0.122486
0.126927
0.0868478
0.141184
0.137059
0.134202
0.134034
0.107828
0.438842
0.133986
0.129073
0.13418
0.128121
0.942372
0.133907
0.13397
0.141118
0.13553
0.119034
0.143056
0.0790988
0.083377
0.473649
0.133777
0.142202
0.134184
0.127536
0.133871
0.135597
0.133771
0.135848
0.114178
0.135977
0.132454
0.143313
0.137727
0.132288
0.139783
0.138111
0.0996373
0.1426
0.0692717
0.133743
0.139267
0.143653
0.118391
0.133758
0.133602
0.133778
0.143723
0.133645
0.133275
0.132623
0.133645
0.139702
0.101901
0.124583
0.133626
0.0935672
0.133545
0.130235
0.114177
0.134163
1.25413
0.135478
0.141942
0.132552
0.133788
0.136483
0.133533
0.132062
0.140802
0.133508
0.134555
0.140886
0.136743
0.133029
0.134664
0.144249
0.133439
0.09853
0.132991
0.0798542
0.133773
0.133765
0.136389
0.128497
0.140908
0.13339
0.133188
0.125787
0.141313
0.111338
0.144467
0.116549
0.137352
0.134107
0.13508
0.135033
0.134652
0.133352
0.133746
0.133252
0.133308
0.133216
0.134822
0.133271
0.142565
0.101582
0.133281
0.132956
0.137387
0.137841
0.142256
0.134296
0.13342
0.133201
0.131504
0.138225
0.13638
0.103494
0.133146
0.0820136
0.132243
0.136877
0.13309
0.132996
0.139333
0.143129
0.142635
0.133412
0.13399
0.133417
0.133402
0.133009
0.135303
0.133422
0.134706
0.132532
0.136555
0.14308
0.139763
0.135055
0.135596
0.132659
0.128416
0.133035
0.136601
0.132498
0.137836
0.132795
0.13247
0.0893876
0.133368
0.13616
0.121297
0.0978463
0.132897
0.132793
0.132044
0.130323
0.142645
0.140808
0.13293
0.115273
0.125118
0.133681
0.141666
0.132925
0.133062
0.135054
0.132461
0.132834
0.133334
0.129717
0.130382
0.128596
0.113127
0.132794
0.132316
0.0879647
0.133062
0.112453
0.127203
0.143328
0.137143
0.119341
0.132622
0.14119
0.132997
0.132795
0.133093
0.137665
0.133078
0.132862
0.0832028
0.13788
0.134051
0.132609
0.134046
0.135167
0.133085
0.122553
0.130952
0.136945
0.132219
0.141671
0.134207
0.132674
0.132267
0.330388
0.126142
0.131163
0.138268
0.133063
0.144911
0.133343
0.132286
0.0896956
0.13662
0.136327
0.115046
0.132351
0.137665
0.135455
0.142261
0.1229
0.131611
0.132599
0.135722
0.133364
0.142914
0.132469
0.133623
0.135764
0.0920255
0.107341
0.126647
0.139236
0.141883
0.134344
0.132441
0.13685
0.125957
0.133183
0.133761
0.135358
0.133999
0.134363
0.1326
0.144776
0.132234
0.132174
0.098363
0.132576
0.119161
0.132676
0.13959
0.132753
0.132789
0.132237
0.132471
0.131993
0.135824
0.132329
0.134675
0.13268
0.121179
0.131844
0.132787
0.123664
0.136153
0.133534
0.132801
0.131825
0.142031
0.132417
0.133984
0.133666
0.132986
0.134636
0.13999
0.132794
0.111514
0.132281
0.134068
0.131812
0.132075
0.132124
0.140809
0.106484
0.142186
0.135551
0.140115
0.136844
0.134622
0.131031
0.133911
0.136974
0.136643
0.133264
0.133016
0.132192
0.136865
0.132778
0.116801
0.13779
0.133328
0.134922
0.136095
0.136339
0.13228
0.131598
0.13586
0.133909
0.137862
0.131978
0.132013
0.138817
0.131727
0.132368
0.0900101
0.123369
0.132383
0.13251
0.132241
0.138079
0.131754
0.131576
0.131851
0.132513
0.11916
0.132125
0.135026
0.132538
0.131565
0.135585
0.11326
0.135989
0.13354
0.140659
0.133625
0.134338
0.197277
0.462218
0.101688
0.105238
0.138272
0.132537
0.133358
0.125288
0.131885
0.132988
0.132056
0.132762
0.132448
0.133214
0.131479
0.126068
0.132543
0.138651
0.166362
0.134018
0.308084
0.131688
0.133637
0.131526
0.138232
0.131899
0.131808
0.137324
0.113276
0.123457
0.136096
0.0966842
0.10908
0.119592
0.133317
0.104499
0.132536
0.134168
0.136354
0.131788
0.133201
0.131971
0.131615
0.132829
0.132097
0.133781
0.13207
0.129333
0.132288
0.0924581
0.136546
0.131464
0.131919
0.133001
0.132251
0.131431
0.136589
0.136842
0.0871197
0.138516
0.114596
0.134534
0.13217
0.135589
0.130483
0.133054
0.130847
0.135869
0.132292
0.131535
0.136008
0.136764
0.116352
0.132181
0.130878
0.105769
0.112827
0.131782
0.0950052
0.13468
0.134914
0.109276
0.133548
0.132312
0.131395
0.122531
0.136735
0.130404
0.205348
0.130872
0.132846
0.132964
0.130194
0.131686
0.134084
0.130697
0.136086
0.134941
0.131046
0.132506
0.136479
0.13132
0.1327
0.132312
0.132779
0.133985
0.131707
0.130839
0.131819
0.131448
0.131779
0.135575
0.132755
0.133767
0.420164
0.137648
0.208109
0.131901
0.131659
0.0541557
0.130291
0.13192
0.131241
0.133128
0.130346
0.137178
0.132304
0.131907
0.133657
0.133757
0.132045
0.130144
0.13079
0.122004
0.123775
0.132653
0.134712
0.132053
0.0949787
0.130561
0.132085
0.124835
0.131578
0.132086
0.132352
0.132993
0.130339
0.130169
0.136264
0.130726
0.0903611
0.13093
0.131157
0.132094
0.13198
0.0932417
0.130301
0.132942
0.100498
0.131593
0.131353
0.132089
0.137001
0.132284
0.132476
0.130648
0.127425
0.344533
0.133994
0.135479
0.135641
0.135473
0.133306
0.130101
0.134113
0.132002
0.117514
0.130239
0.099985
0.131533
0.131154
0.134923
0.129008
0.131668
0.134696
0.131637
0.0884115
0.135018
0.735798
0.107645
0.132097
0.129982
0.131463
0.130161
0.123804
0.112383
0.133909
0.130557
0.123104
0.131498
0.131949
0.126815
0.135712
0.137221
0.131736
0.130069
0.133108
0.13125
0.128374
0.13186
0.101303
0.132518
0.128422
0.131751
0.132084
0.121525
0.671277
0.13002
0.123493
0.212068
0.131821
0.129969
0.131868
0.131007
0.133466
0.128122
0.131058
0.553971
0.128429
0.132339
0.624816
0.129794
0.420893
0.131239
0.132672
0.126748
0.12215
0.128397
0.138456
0.120411
0.131888
0.134176
0.130457
0.131403
0.123508
0.118772
0.128333
0.119852
0.131343
0.133981
0.0866772
0.131428
0.131495
0.132179
0.0725532
0.133268
0.131519
0.127961
0.128241
0.131137
0.132003
0.129865
0.106855
0.0909047
0.126886
0.132623
0.13188
0.121296
0.128126
0.126867
0.116414
0.126808
0.132202
0.132252
0.131229
0.130955
0.127915
0.126505
0.132413
0.126801
0.109951
0.133567
0.139702
0.134478
0.110312
0.127988
0.129024
0.132813
0.131641
0.133927
0.12999
0.131652
0.131577
0.126696
0.130348
0.134563
0.133544
0.134683
0.271652
0.114191
0.113697
0.131678
0.126557
0.131816
0.140136
0.132246
0.110567
0.126537
0.127621
0.132067
0.0979188
0.106091
0.126394
0.139689
0.129045
0.129753
0.127466
0.133387
0.138156
0.131902
0.132553
0.131019
0.116633
0.131272
0.131218
0.131673
0.126216
0.13413
0.13016
0.127838
0.143986
0.137115
0.130843
0.133952
0.131724
0.121289
0.131353
0.126097
0.12128
0.0842485
0.130385
0.110106
0.133587
0.130227
0.114924
0.118953
0.132936
0.122315
0.12604
0.121226
0.131375
0.131623
0.207205
0.131766
0.121118
0.129635
0.191526
0.131472
0.120961
0.111589
0.126202
0.121304
0.10581
0.131442
0.132678
0.131235
0.120766
0.131637
0.230452
0.17697
0.127682
0.131469
0.133433
0.144085
0.131536
0.126888
0.117093
0.120541
0.12089
0.357292
0.130897
0.0730094
0.120647
0.131089
0.131559
0.130725
0.128038
0.131438
0.279505
0.344866
0.137373
0.12892
0.125868
0.13368
0.116951
0.1301
0.13114
0.125139
0.13187
0.133157
0.129443
0.0765219
0.131426
0.11675
0.264182
0.102908
0.131168
0.131292
0.133008
0.116494
0.117204
0.129511
0.126473
0.112445
0.104711
0.116201
0.131272
0.351477
0.0960443
0.119967
0.120287
0.306034
0.127514
0.115887
0.170444
0.135026
0.131343
0.108704
0.132763
0.131012
0.133393
0.133871
0.128969
0.131131
0.129079
0.131271
0.131215
0.342194
0.27255
0.125699
0.204427
0.117613
0.13127
0.0959007
0.115578
0.133782
0.117238
0.116764
0.121128
0.138291
0.131069
0.131231
0.0881268
0.140939
0.130991
0.130857
0.116088
0.131947
0.11664
0.131069
0.103141
0.202372
0.120037
0.130772
0.12997
0.286464
0.103071
0.130602
0.0814377
0.153907
0.129098
0.107028
0.129382
0.10293
0.118619
0.130705
0.132994
0.13115
0.103205
0.130958
0.102716
0.127342
0.116051
0.0933245
0.129001
0.102447
0.13329
0.125505
0.13135
0.0654209
0.116985
0.129126
0.115307
0.129516
0.263514
0.322195
0.130959
0.125533
0.102139
0.128017
0.132774
0.126399
0.114927
0.0733214
0.289324
0.126663
0.119776
0.131008
0.132563
0.12742
0.127241
0.127453
0.103677
0.13054
0.0930421
0.133442
0.129144
0.13078
0.103429
0.0944062
0.131969
0.101778
0.13104
0.0928176
0.482706
0.131074
0.0925161
0.127563
0.0921299
0.128964
0.172926
0.112199
0.102713
0.25684
0.13096
0.129066
0.0916837
0.323701
0.10649
0.115064
0.115149
0.1023
0.0912123
0.0933429
0.132992
0.129837
0.104903
0.116017
0.101336
0.0856709
0.127175
0.131384
0.129249
0.103071
0.119357
0.0997329
0.128848
0.121355
0.198847
0.127551
0.260561
0.130473
0.129122
0.130599
0.125369
0.121926
0.0907573
0.127452
0.107178
0.130366
0.112463
0.121329
0.127447
0.130855
0.10142
0.310922
0.130643
0.119521
0.103938
0.132887
0.121781
0.0834047
0.127343
0.352605
0.0942342
0.121186
0.145206
0.500224
0.114023
0.114841
0.127351
0.142448
0.0999611
0.117824
0.130187
0.217373
0.1171
0.121744
0.117621
0.0903985
0.130845
0.291529
0.116969
0.129645
0.0916837
0.128717
0.132672
0.0927368
0.13077
0.13082
0.122443
0.115307
0.122513
0.131885
0.415667
0.483444
0.123955
0.0931363
0.103951
0.302928
0.130418
0.117541
0.286745
0.127219
0.10104
0.116948
0.133133
0.361106
0.372559
0.102998
0.121043
0.232552
0.243918
0.26288
0.101786
0.1124
0.0928761
0.0927661
0.127014
0.129054
0.129108
0.121717
0.127396
0.130008
0.451606
0.130604
0.241421
0.281083
0.131325
0.116797
0.0997058
0.324135
0.129704
0.0904498
0.125208
0.192719
0.0970957
0.194602
0.128574
0.196701
0.112211
0.0846086
0.196401
0.132681
0.24673
0.117504
0.11929
0.165133
0.197789
0.10311
0.198608
0.106928
0.344408
0.198816
0.0901271
0.112935
0.092932
0.0950133
0.410936
0.293565
0.198312
0.130492
0.113039
0.12708
0.130332
0.102882
0.114632
0.101695
0.128422
0.131384
0.130231
0.193646
0.102193
0.0777693
0.12167
0.118646
0.130557
0.115407
0.0670358
0.283476
0.096731
0.197082
0.133048
0.131954
0.129827
0.100702
0.117449
0.088381
0.103241
0.12693
0.353733
0.111779
0.120848
0.0899291
0.18199
0.0814856
0.0930143
0.101374
0.116633
0.128264
0.188484
0.130202
0.126861
0.185608
0.121602
0.132454
0.22742
0.0932962
0.127665
0.127224
0.195003
0.092003
0.129547
0.125043
0.183703
0.129994
0.089884
0.0925822
0.126772
0.27934
0.130119
0.0724643
0.128958
0.131665
0.129618
0.0916756
0.100558
0.128842
0.0870593
0.131103
0.0837335
0.117371
0.416339
0.213097
0.189685
0.36252
0.119083
0.233034
0.12952
0.103332
0.0861883
0.195352
0.2659
0.104719
0.128095
0.129439
0.132271
0.0976269
0.115079
0.120471
0.182833
0.121514
0.090299
0.127871
0.129257
0.0930315
0.129266
0.11444
0.0984761
0.0859722
0.192653
0.126606
0.128734
0.0931997
0.126694
0.0792675
0.232137
0.101073
0.159583
0.227799
0.121411
0.2233
0.126411
0.120473
0.21845
0.117274
0.191125
0.213689
0.127407
0.0984729
0.181774
0.209449
0.206201
0.124873
0.133648
0.126072
0.116337
0.100415
0.128339
0.0914392
0.127636
0.641392
0.612235
0.204253
0.118905
0.103395
0.121289
0.182383
0.128144
0.212817
0.19285
0.126397
0.12111
0.185719
0.176164
0.106022
0.073227
0.203764
0.180949
0.11716
0.249867
0.0865062
0.126076
0.120705
0.116376
0.124639
0.236833
0.235377
0.0930173
0.117032
0.232985
0.126808
0.190776
0.125176
0.0896692
0.374584
0.193934
0.238724
0.192276
0.105841
0.0794676
0.12843
0.116586
0.116873
0.132082
0.0903756
0.118731
0.131287
0.125505
0.229185
0.130675
0.101032
0.114254
0.150825
0.127304
0.205127
0.130703
0.126052
0.262716
0.152894
0.12077
0.124053
0.119496
0.103369
0.242248
0.10343
0.324279
0.193236
0.162489
0.115807
0.127785
0.119825
0.118449
0.128614
0.103133
0.18009
0.11407
0.322334
0.255771
0.0715727
0.223698
0.10343
0.170949
0.122468
0.131094
0.100178
0.115712
0.103442
0.100585
0.0686728
0.130077
0.205987
0.214266
0.122091
0.249729
0.234367
0.12684
0.0926219
0.0927813
0.277195
0.117631
0.239247
0.193405
0.126127
0.131219
0.257949
0.179359
0.113841
0.251735
0.132269
0.102279
0.243924
0.115864
0.0910967
0.113427
0.160825
0.0999952
0.129002
0.157029
0.186688
0.125135
0.0653947
0.092983
0.125282
0.115875
0.125813
0.092149
0.0928652
0.249307
0.119269
0.118854
0.113313
0.126424
0.114893
0.0915246
0.18803
0.268395
0.0995134
0.129385
0.101169
0.085004
0.0689819
0.197566
0.235731
0.117515
0.0997952
0.198426
0.123666
0.189418
0.206111
0.0906068
0.106718
0.11159
0.0998467
0.220976
0.235998
0.0894863
0.187221
0.196598
0.198865
0.0917891
0.0906026
0.106168
0.115602
0.0996361
0.14268
0.21686
0.114727
0.0859984
0.112711
0.178944
0.248976
0.113336
0.121792
0.0929303
0.114411
0.0891595
0.0982168
0.120962
0.197593
0.242279
0.0990303
0.148885
0.0893213
0.214253
0.0903077
0.218812
0.194517
0.231866
0.112169
0.190761
0.11145
0.191643
0.0969509
0.0904386
0.209544
0.190371
0.090559
0.18812
0.188119
0.203057
0.0986249
0.216663
0.0970564
0.204048
0.0740085
0.108569
0.0850488
0.241916
0.246026
0.177647
0.17619
0.195585
0.189846
0.223317
0.195514
0.0894088
0.095008
0.104233
0.0889884
0.232818
0.176197
0.163423
0.0734265
0.0919339
0.0858347
0.0886349
0.0893694
0.102794
0.0875027
0.210202
0.174043
0.0838291
0.211238
0.165816
0.199082
0.155271
0.0719003
0.0789642
0.166155
0.0875224
0.119951
0.110192
0.104349
0.167367
0.198443
0.188401
0.227702
0.188302
0.201034
0.20459
0.187385
0.194846
0.205618
0.188532
0.172202
0.229324
0.247896
0.217499
0.169735
0.237405
0.174349
0.164002
0.110714
0.112261
0.158209
0.172921
0.188578
0.181608
0.242763
0.0699568
0.142944
0.0832758
0.0878666
0.0859009
0.186038
0.188386
0.124457
0.124967
0.110269
0.11172
0.0727753
0.134125
0.0976957
0.0723138
0.160088
0.170284
0.144303
0.117671
0.470565
0.122799
0.505649
0.133987
0.0474865
0.127481
0.128251
0.58741
0.110925
0.070273
0.127068
0.186265
0.176925
0.537057
0.380195
0.5903
0.353469
0.481889
0.423595
0.124729
0.293871
0.112605
0.487233
0.396587
0.497843
0.325726
0.078302
0.133823
0.60266
1.00885
1.06689
0.119816
0.125464
0.446764
0.10572
0.144702
0.0982556
0.0480875
0.164353
0.590048
0.242137
0.190851
0.243012
0.23432
0.183839
0.207927
0.239882
0.230294
0.119379
0.0799279
0.0596123
0.145117
0.303371
0.288421
0.501321
0.0653099
0.0755932
0.366601
0.0904315
0.0867278
0.0780283
0.118515
0.265795
0.0592439
0.0986781
0.0798571
0.340114
0.142198
0.0826627
0.0944471
0.223814
0.104435
0.141165
0.0974717
0.363741
0.557974
0.119399
0.10521
0.140096
0.0464746
0.0641687
0.266853
0.115539
0.142254
0.0573782
0.141763
0.12358
0.157206
0.130718
0.141587
0.104318
0.134137
0.114949
0.0785698
0.0818244
0.44526
0.132971
0.184712
0.396697
0.140588
)
;

boundaryField
{
    patch0
    {
        type            epsilonWallFunction;
        value           nonuniform List<scalar> 
4010
(
0.129878
0.129878
0.132425
0.132425
0.1235
0.1235
0.127556
0.127556
0.124707
0.124707
0.120558
0.120558
0.128382
0.128382
0.119141
0.119141
0.127803
0.127803
0.127181
0.127181
0.123913
0.123913
0.129831
0.129831
0.0835667
0.0835667
0.129478
0.129478
0.13718
0.13718
0.136623
0.136623
0.0838166
0.0838166
0.134097
0.134097
0.127545
0.127545
0.13631
0.13631
0.0541726
0.0541726
0.132688
0.132688
0.111689
0.111689
0.138326
0.138326
0.134301
0.134301
0.134737
0.134737
0.135158
0.135158
0.139845
0.139845
0.0934249
0.0934249
0.136117
0.136117
0.0997545
0.0997545
0.134697
0.134697
0.0847778
0.0847778
0.0909946
0.0909946
0.137351
0.137351
0.123084
0.123084
0.13415
0.13415
0.103975
0.103975
0.130257
0.130257
0.0913776
0.0913776
0.134935
0.134935
0.0663412
0.0663412
0.134853
0.134853
0.106515
0.106515
0.136851
0.136851
0.0757542
0.0757542
0.12874
0.12874
0.142656
0.142656
0.04492
0.04492
0.0426181
0.0426181
0.127873
0.127873
0.0681323
0.0681323
0.130135
0.130135
0.125767
0.125767
0.0701446
0.0701446
0.137535
0.137535
0.125939
0.125939
0.141046
0.141046
0.139775
0.139775
0.134104
0.134104
0.116339
0.116339
0.136637
0.136637
0.115165
0.115165
0.128619
0.128619
0.121483
0.121483
0.143582
0.143582
0.135121
0.135121
0.122199
0.122199
0.0765389
0.0765389
0.12316
0.12316
0.0535218
0.0535218
0.135961
0.135961
0.127239
0.127239
0.1384
0.1384
0.138635
0.138635
0.0830431
0.0830431
0.144031
0.144031
0.141404
0.141404
0.142689
0.142689
0.122902
0.122902
0.143418
0.143418
0.135076
0.135076
0.13392
0.13392
0.0517476
0.0517476
0.116058
0.116058
0.12866
0.12866
0.141971
0.141971
0.137742
0.137742
0.041249
0.041249
0.05007
0.05007
0.135447
0.135447
0.134632
0.134632
0.0705451
0.0705451
0.0801808
0.0801808
0.0532589
0.0532589
0.109877
0.109877
0.143204
0.143204
0.142789
0.142789
0.134409
0.134409
0.0758079
0.0758079
0.099743
0.099743
0.0536758
0.0536758
0.134825
0.134825
0.134563
0.134563
0.0862085
0.0862085
0.145301
0.145301
0.077829
0.077829
0.0945278
0.0945278
0.133645
0.133645
0.0712762
0.0712762
0.142863
0.142863
0.0758333
0.0758333
0.126661
0.126661
0.137056
0.137056
0.143221
0.143221
0.045709
0.045709
0.104067
0.104067
0.13603
0.13603
0.133954
0.133954
0.144214
0.144214
0.112935
0.112935
0.153044
0.153044
0.0525382
0.0525382
0.0484439
0.0484439
0.135216
0.135216
0.099596
0.099596
0.0843903
0.0843903
0.14242
0.14242
0.0717967
0.0717967
0.239107
0.239107
0.142948
0.142948
0.080249
0.080249
0.658777
0.658777
0.137519
0.137519
0.0638485
0.0638485
0.0796477
0.0796477
0.0995102
0.0995102
0.077801
0.077801
0.139284
0.139284
0.130205
0.130205
0.143009
0.143009
0.135876
0.135876
0.99152
0.99152
0.99152
0.837732
0.837732
0.837732
0.0994766
0.0994766
0.112706
0.112706
0.0956593
0.0956593
0.0612876
0.0612876
0.133352
0.133352
0.133383
0.133383
0.125254
0.125254
0.31107
0.31107
0.31107
0.0645488
0.0645488
0.081162
0.081162
0.104039
0.104039
0.102898
0.102898
0.150417
0.150417
0.105468
0.105468
0.141331
0.141331
0.988926
0.988926
0.138009
0.138009
0.0811926
0.0811926
0.0841701
0.0841701
0.161989
0.161989
0.120621
0.120621
0.0868807
0.0868807
0.102781
0.102781
0.192047
0.192047
0.144462
0.144462
0.0728152
0.0728152
0.0857329
0.0857329
0.101352
0.101352
0.145467
0.145467
0.134275
0.134275
0.141369
0.141369
0.0723364
0.0723364
0.136192
0.136192
0.250812
0.250812
0.127753
0.127753
0.0866302
0.0866302
0.102932
0.102932
0.136002
0.136002
0.142114
0.142114
0.109876
0.109876
0.0436949
0.0436949
0.133879
0.133879
0.0665519
0.0665519
0.119477
0.119477
0.144434
0.144434
0.139929
0.139929
0.0862156
0.0862156
0.106749
0.106749
0.141489
0.141489
0.0906816
0.0906816
0.108776
0.108776
0.329336
0.329336
0.329336
0.129497
0.129497
0.0751766
0.0751766
0.0836639
0.0836639
0.0724687
0.0724687
0.368986
0.368986
0.137928
0.137928
0.0835328
0.0835328
0.108157
0.108157
0.105342
0.105342
0.108998
0.108998
0.0959037
0.0959037
0.0615876
0.0615876
0.0601136
0.0601136
0.613323
0.613323
0.613323
0.17162
0.17162
0.0741475
0.0741475
0.139317
0.139317
0.116611
0.116611
0.124088
0.124088
0.144357
0.144357
0.132994
0.132994
0.0905778
0.0905778
0.101312
0.101312
0.142544
0.142544
0.101077
0.101077
0.133714
0.133714
0.0901707
0.0901707
0.13896
0.13896
0.114535
0.114535
0.13213
0.13213
0.139734
0.139734
0.145172
0.145172
0.118424
0.118424
0.0745925
0.0745925
0.426707
0.426707
0.134907
0.134907
0.0905793
0.0905793
0.298448
0.298448
0.134057
0.134057
0.59855
0.59855
0.59855
0.139738
0.139738
0.109602
0.109602
0.090603
0.090603
0.348157
0.348157
0.348157
0.135448
0.135448
0.0938105
0.0938105
0.140226
0.140226
0.0630368
0.0630368
0.690637
0.690637
0.0551983
0.0551983
0.119302
0.119302
0.141294
0.141294
0.142593
0.142593
0.145443
0.145443
0.133758
0.133758
0.2121
0.2121
0.124193
0.124193
0.076031
0.076031
0.144492
0.144492
0.138671
0.138671
0.134367
0.134367
0.102734
0.102734
0.0997187
0.0997187
0.115417
0.115417
0.111789
0.111789
0.098557
0.098557
0.133917
0.133917
0.144036
0.144036
0.134554
0.134554
0.135818
0.135818
0.0783908
0.0783908
0.145174
0.145174
0.080573
0.080573
0.406021
0.406021
0.0794666
0.0794666
0.129006
0.129006
0.0769745
0.0769745
0.121474
0.121474
0.134554
0.134554
0.143211
0.143211
0.12436
0.12436
0.135083
0.135083
0.0785782
0.0785782
0.0797349
0.0797349
0.332414
0.332414
0.52141
0.52141
0.52141
0.135367
0.135367
0.12699
0.12699
0.119068
0.119068
0.140365
0.140365
0.140634
0.140634
0.240723
0.240723
0.124338
0.124338
0.103015
0.103015
0.102119
0.102119
0.128524
0.128524
0.135656
0.135656
0.139152
0.139152
0.043889
0.043889
0.123959
0.123959
0.138225
0.138225
0.0682005
0.0682005
0.144305
0.144305
0.138695
0.138695
0.430663
0.430663
0.430663
0.0823571
0.0823571
0.140382
0.140382
0.13275
0.13275
0.129635
0.129635
0.132128
0.132128
0.0929085
0.0929085
0.14084
0.14084
0.112012
0.112012
0.139021
0.139021
0.0594083
0.0594083
0.133126
0.133126
0.130876
0.130876
0.134097
0.134097
0.143652
0.143652
0.0928268
0.0928268
0.113145
0.113145
0.12854
0.12854
0.110743
0.110743
0.119759
0.119759
0.131579
0.131579
0.0827949
0.0827949
0.0865978
0.0865978
0.131553
0.131553
0.13518
0.13518
0.144273
0.144273
0.114309
0.114309
0.127748
0.127748
0.138777
0.138777
0.139537
0.139537
0.0845088
0.0845088
0.134533
0.134533
0.134298
0.134298
0.133634
0.133634
0.140644
0.140644
0.135795
0.135795
0.134124
0.134124
0.115578
0.115578
0.1331
0.1331
0.0929291
0.0929291
0.144711
0.144711
0.134609
0.134609
0.134402
0.134402
0.0690907
0.0690907
0.137596
0.137596
0.135503
0.135503
0.487867
0.487867
0.134697
0.134697
0.132498
0.132498
0.134377
0.134377
0.134365
0.134365
0.707756
0.707756
0.374489
0.374489
0.139063
0.139063
0.0644709
0.0644709
0.145113
0.145113
0.0478222
0.0478222
0.133703
0.133703
0.119212
0.119212
0.0920173
0.0920173
0.135858
0.135858
0.1379
0.1379
0.139507
0.139507
0.134227
0.134227
0.134258
0.134258
0.0988588
0.0988588
0.134275
0.134275
0.0927579
0.0927579
0.13496
0.13496
0.123179
0.123179
0.140752
0.140752
0.123933
0.123933
0.131491
0.131491
0.135369
0.135369
0.134043
0.134043
0.22217
0.22217
0.137499
0.137499
0.137141
0.137141
0.134127
0.134127
0.134657
0.134657
0.134939
0.134939
0.145072
0.145072
0.122486
0.122486
0.126927
0.126927
0.0868478
0.0868478
0.141184
0.141184
0.137059
0.137059
0.134202
0.134202
0.134034
0.134034
0.107828
0.107828
0.438842
0.438842
0.133986
0.133986
0.129073
0.129073
0.13418
0.13418
0.128121
0.128121
0.942372
0.942372
0.942372
0.133907
0.133907
0.13397
0.13397
0.141118
0.141118
0.13553
0.13553
0.119034
0.119034
0.143056
0.143056
0.0790988
0.0790988
0.083377
0.083377
0.473649
0.473649
0.473649
0.133777
0.133777
0.142202
0.142202
0.134184
0.134184
0.127536
0.127536
0.133871
0.133871
0.135597
0.135597
0.133771
0.133771
0.135848
0.135848
0.114178
0.114178
0.135977
0.135977
0.132454
0.132454
0.143313
0.143313
0.137727
0.137727
0.132288
0.132288
0.139783
0.139783
0.138111
0.138111
0.0996373
0.0996373
0.1426
0.1426
0.0692717
0.0692717
0.133743
0.133743
0.139267
0.139267
0.143653
0.143653
0.118391
0.118391
0.133758
0.133758
0.133602
0.133602
0.133778
0.133778
0.143723
0.143723
0.133645
0.133645
0.133275
0.133275
0.132623
0.132623
0.133645
0.133645
0.139702
0.139702
0.101901
0.101901
0.124583
0.124583
0.133626
0.133626
0.0935672
0.0935672
0.133545
0.133545
0.130235
0.130235
0.114177
0.114177
0.134163
0.134163
1.25413
1.25413
1.25413
0.135478
0.135478
0.141942
0.141942
0.132552
0.132552
0.133788
0.133788
0.136483
0.136483
0.133533
0.133533
0.132062
0.132062
0.140802
0.140802
0.133508
0.133508
0.134555
0.134555
0.140886
0.140886
0.136743
0.136743
0.133029
0.133029
0.134664
0.134664
0.144249
0.144249
0.133439
0.133439
0.09853
0.09853
0.132991
0.132991
0.0798542
0.0798542
0.133773
0.133773
0.133765
0.133765
0.136389
0.136389
0.128497
0.128497
0.140908
0.140908
0.13339
0.13339
0.133188
0.133188
0.125787
0.125787
0.141313
0.141313
0.111338
0.111338
0.144467
0.144467
0.116549
0.116549
0.137352
0.137352
0.134107
0.134107
0.13508
0.13508
0.135033
0.135033
0.134652
0.134652
0.133352
0.133352
0.133746
0.133746
0.133252
0.133252
0.133308
0.133308
0.133216
0.133216
0.134822
0.134822
0.133271
0.133271
0.142565
0.142565
0.101582
0.101582
0.133281
0.133281
0.132956
0.132956
0.137387
0.137387
0.137841
0.137841
0.142256
0.142256
0.134296
0.134296
0.13342
0.13342
0.133201
0.133201
0.131504
0.131504
0.138225
0.138225
0.13638
0.13638
0.103494
0.103494
0.133146
0.133146
0.0820136
0.0820136
0.132243
0.132243
0.136877
0.136877
0.13309
0.13309
0.132996
0.132996
0.139333
0.139333
0.143129
0.143129
0.142635
0.142635
0.133412
0.133412
0.13399
0.13399
0.133417
0.133417
0.133402
0.133402
0.133009
0.133009
0.135303
0.135303
0.133422
0.133422
0.134706
0.134706
0.132532
0.132532
0.136555
0.136555
0.14308
0.14308
0.139763
0.139763
0.135055
0.135055
0.135596
0.135596
0.132659
0.132659
0.128416
0.128416
0.133035
0.133035
0.136601
0.136601
0.132498
0.132498
0.137836
0.137836
0.132795
0.132795
0.13247
0.13247
0.0893876
0.0893876
0.133368
0.133368
0.13616
0.13616
0.121297
0.121297
0.0978463
0.0978463
0.132897
0.132897
0.132793
0.132793
0.132044
0.132044
0.130323
0.130323
0.142645
0.142645
0.140808
0.140808
0.13293
0.13293
0.115273
0.115273
0.125118
0.125118
0.133681
0.133681
0.141666
0.141666
0.132925
0.132925
0.133062
0.133062
0.135054
0.135054
0.132461
0.132461
0.132834
0.132834
0.133334
0.133334
0.129717
0.129717
0.130382
0.130382
0.128596
0.128596
0.113127
0.113127
0.132794
0.132794
0.132316
0.132316
0.0879647
0.0879647
0.133062
0.133062
0.112453
0.112453
0.127203
0.127203
0.143328
0.143328
0.137143
0.137143
0.119341
0.119341
0.132622
0.132622
0.14119
0.14119
0.132997
0.132997
0.132795
0.132795
0.133093
0.133093
0.137665
0.137665
0.133078
0.133078
0.132862
0.132862
0.0832028
0.0832028
0.13788
0.13788
0.134051
0.134051
0.132609
0.132609
0.134046
0.134046
0.135167
0.135167
0.133085
0.133085
0.122553
0.122553
0.130952
0.130952
0.136945
0.136945
0.132219
0.132219
0.141671
0.141671
0.134207
0.134207
0.132674
0.132674
0.132267
0.132267
0.330388
0.330388
0.126142
0.126142
0.131163
0.131163
0.138268
0.138268
0.133063
0.133063
0.144911
0.144911
0.133343
0.133343
0.132286
0.132286
0.0896956
0.0896956
0.13662
0.13662
0.136327
0.136327
0.115046
0.115046
0.132351
0.132351
0.137665
0.137665
0.135455
0.135455
0.142261
0.142261
0.1229
0.1229
0.131611
0.131611
0.132599
0.132599
0.135722
0.135722
0.133364
0.133364
0.142914
0.142914
0.132469
0.132469
0.133623
0.133623
0.135764
0.135764
0.0920255
0.0920255
0.107341
0.107341
0.126647
0.126647
0.139236
0.139236
0.141883
0.141883
0.134344
0.134344
0.132441
0.132441
0.13685
0.13685
0.125957
0.125957
0.133183
0.133183
0.133761
0.133761
0.135358
0.135358
0.133999
0.133999
0.134363
0.134363
0.1326
0.1326
0.144776
0.144776
0.132234
0.132234
0.132174
0.132174
0.098363
0.098363
0.132576
0.132576
0.119161
0.119161
0.132676
0.132676
0.13959
0.13959
0.132753
0.132753
0.132789
0.132789
0.132237
0.132237
0.132471
0.132471
0.131993
0.131993