/*--------------------------------*- C++ -*----------------------------------*\
  =========                 |
  \\      /  F ield         | OpenFOAM: The Open Source CFD Toolbox
   \\    /   O peration     | Website:  https://openfoam.org
    \\  /    A nd           | Version:  8
     \\/     M anipulation  |
\*---------------------------------------------------------------------------*/
FoamFile
{
    version     2.0;
    format      ascii;
    class       volScalarField;
    location    "0.2";
    object      k;
}
// * * * * * * * * * * * * * * * * * * * * * * * * * * * * * * * * * * * * * //

dimensions      [0 2 -2 0 0 0 0];

internalField   nonuniform List<scalar> 
1924
(
0.0639397
0.0647705
0.0617383
0.0629806
0.0622501
0.060659
0.0631795
0.0600299
0.063032
0.062942
0.0616252
0.0636708
0.0476494
0.0635139
0.0662307
0.0660501
0.0477761
0.0651
0.063126
0.0658476
0.0356319
0.0646165
0.0577749
0.0665365
0.0652508
0.0654451
0.0655746
0.0671376
0.0513739
0.0658853
0.053676
0.0654076
0.0485004
0.0505071
0.0663107
0.0615644
0.0651631
0.0551515
0.0639619
0.0506446
0.0654765
0.0407577
0.0654766
0.0559729
0.066121
0.0450069
0.0635088
0.0680048
0.0314598
0.0304105
0.0632153
0.0415137
0.0636907
0.0625056
0.0425888
0.0663785
0.0625774
0.0674844
0.0670864
0.0652321
0.0593884
0.0660546
0.0589749
0.0634136
0.0610659
0.0683121
0.0655626
0.0612842
0.0452264
0.061664
0.0353846
0.0658352
0.0629579
0.0666349
0.0667151
0.0474051
0.0684471
0.0676099
0.0680143
0.0615766
0.0682239
0.0655534
0.0651796
0.0345457
0.0595355
0.0633607
0.0678122
0.0664107
0.0297628
0.0338404
0.0656691
0.0654093
0.0427144
0.0465173
0.0352086
0.0570695
0.0681675
0.0680216
0.065333
0.0446354
0.053518
0.0353982
0.0654694
0.0653855
0.0487477
0.0688333
0.0454658
0.0515984
0.0650811
0.0429677
0.0680494
0.0448596
0.0628464
0.0661955
0.0681863
0.031829
0.0550104
0.0658567
0.065191
0.0685043
0.0583694
0.0375004
0.0349209
0.0331045
0.0655929
0.05353
0.0479034
0.0679372
0.043142
0.0478827
0.0680765
0.0463304
0.0449491
0.0663473
0.0397404
0.0462528
0.0534677
0.0455309
0.0668697
0.0639885
0.0681401
0.0658081
0.0501618
0.045408
0.0533993
0.058054
0.0519138
0.0387883
0.064984
0.0650053
0.0623332
0.0379021
0.0401752
0.0466092
0.0549132
0.0546033
0.0370745
0.0556101
0.0675422
0.0588
0.066503
0.0467385
0.0476849
0.0389406
0.0607832
0.0490379
0.0547282
0.0362777
0.0685807
0.0435041
0.0489534
0.0538667
0.0688805
0.0652902
0.0675836
0.043028
0.0659099
0.0372005
0.0631438
0.0485166
0.0541403
0.065847
0.0678331
0.057074
0.030883
0.0651879
0.0407521
0.0600363
0.0685598
0.0671269
0.0480989
0.0557216
0.0675915
0.0499429
0.0566569
0.0393658
0.0635606
0.0440918
0.0472035
0.0431958
0.0468817
0.0665205
0.0475989
0.0561454
0.0559657
0.0563204
0.0517683
0.03876
0.0382172
0.0359045
0.0404649
0.0439611
0.0669024
0.0594002
0.0616193
0.06854
0.0648655
0.0498784
0.0536732
0.0679823
0.0537128
0.0651012
0.050064
0.0667929
0.0583741
0.06447
0.0670102
0.0687807
0.0599391
0.0439851
0.0424465
0.0654941
0.0496844
0.0384246
0.0651607
0.0348421
0.0670459
0.0565913
0.0501026
0.0408487
0.0656663
0.050898
0.0672015
0.0393582
0.0580115
0.0360565
0.0600082
0.067544
0.0679864
0.0688688
0.0651351
0.0420185
0.0618994
0.044649
0.0685749
0.0667088
0.0653247
0.0539393
0.0532375
0.0586227
0.0575832
0.0529957
0.065172
0.068445
0.0653806
0.0658165
0.0455609
0.068787
0.0465087
0.049525
0.0459188
0.0635749
0.045566
0.0605163
0.0653785
0.0681578
0.061754
0.0655181
0.0455599
0.0458943
0.0479606
0.0426511
0.0656435
0.062806
0.0603781
0.0672679
0.0673112
0.0449619
0.0617277
0.0541116
0.0541775
0.0633943
0.0657209
0.066863
0.0309459
0.0618996
0.0665668
0.0416303
0.068524
0.0667175
0.0457331
0.0469463
0.0672546
0.064785
0.0635659
0.0643817
0.0511163
0.0674004
0.0571762
0.0668267
0.0378709
0.0649213
0.0641081
0.0651872
0.0682978
0.051114
0.0579241
0.063179
0.0572228
0.0603722
0.0644159
0.0470788
0.0484783
0.064399
0.0655536
0.0684939
0.0580994
0.0627706
0.0667109
0.0669488
0.047577
0.0653703
0.0652807
0.0649352
0.0673897
0.0657757
0.065238
0.0588644
0.0648418
0.0507813
0.0686329
0.065401
0.0653251
0.0420035
0.0663644
0.0656856
0.0444452
0.0654233
0.0647121
0.0652361
0.065325
0.0565834
0.0487225
0.0668344
0.0400262
0.0687603
0.0328134
0.0649718
0.0597211
0.0507049
0.0658004
0.066461
0.0669761
0.0652709
0.0652899
0.052894
0.065292
0.0507041
0.0654704
0.0614664
0.0673731
0.0617187
0.0641474
0.0656406
0.0652158
0.0342522
0.0663323
0.0662175
0.0652478
0.0654096
0.0655016
0.0687516
0.0609716
0.062793
0.04844
0.067511
0.0662445
0.0652622
0.0652136
0.0560508
0.0497454
0.0651993
0.0633224
0.0652545
0.0631288
0.0427545
0.0651729
0.0651963
0.0674736
0.0656938
0.0602087
0.0681248
0.0460294
0.0475436
0.0322802
0.0651234
0.0678354
0.0652554
0.0627004
0.0651615
0.065719
0.0651332
0.0657128
0.0582652
0.0658127
0.0646872
0.0681888
0.0664046
0.0645976
0.0670266
0.0665279
0.0530316
0.0679624
0.0420703
0.0651206
0.0668985
0.0682957
0.0599948
0.0651284
0.0650683
0.0651233
0.0683186
0.0650817
0.0649702
0.064658
0.0650832
0.0670374
0.0543603
0.061866
0.0650821
0.0507695
0.0650514
0.0638963
0.0585913
0.0652481
0.0515673
0.0656806
0.0677885
0.0645725
0.0651262
0.0660034
0.0650551
0.0645112
0.0673673
0.0650394
0.06531
0.067415
0.0660868
0.0648896
0.0654114
0.0684839
0.0650215
0.0532184
0.0648767
0.0462964
0.0651208
0.065118
0.0659606
0.0632041
0.0674381
0.0650016
0.0649412
0.0625318
0.0675511
0.0571452
0.068553
0.0593607
0.0662518
0.0652293
0.0655468
0.0655362
0.0653421
0.0649836
0.0651115
0.0649597
0.0649747
0.0649409
0.0654621
0.0649578
0.0679427
0.0542736
0.0649615
0.0648646
0.0662353
0.0664399
0.0678512
0.0652908
0.0650057
0.0649364
0.0643773
0.0665631
0.0659694
0.0542783
0.0649223
0.0471119
0.0646177
0.0661292
0.0649004
0.0648761
0.0669178
0.068131
0.0679715
0.0650026
0.065156
0.065004
0.064999
0.0648768
0.0655939
0.0649017
0.0654247
0.0647235
0.0660253
0.0681113
0.067055
0.0655108
0.0657092
0.0648174
0.0633664
0.0648824
0.0660361
0.0647126
0.0664228
0.0648096
0.0646714
0.0498639
0.0649876
0.0658649
0.0605863
0.0529821
0.0648375
0.0648064
0.064546
0.0640003
0.0679827
0.067388
0.0648454
0.058937
0.0622467
0.0650898
0.0676562
0.064844
0.0648879
0.0655382
0.064699
0.0648144
0.0649553
0.0637926
0.0640244
0.063423
0.0581917
0.0648036
0.0646519
0.0491127
0.0648877
0.0573732
0.0628287
0.0681892
0.066152
0.0603378
0.06475
0.0675094
0.0648671
0.0648017
0.0648977
0.0663807
0.0648924
0.0648177
0.0475885
0.0664507
0.0652136
0.0647432
0.065209
0.0654981
0.0648947
0.0614288
0.0642033
0.0661499
0.0646202
0.0676606
0.0652646
0.0647625
0.0646345
0.0475422
0.0626228
0.0642774
0.0665749
0.0648871
0.0687011
0.0649793
0.0646423
0.0498617
0.0660451
0.0659523
0.0588416
0.0646609
0.066382
0.0656728
0.0678492
0.0613529
0.0644176
0.0647378
0.065755
0.0649778
0.0680584
0.0646969
0.0650709
0.0657543
0.0507361
0.0562188
0.0627547
0.0668841
0.0677271
0.0652268
0.064686
0.066103
0.0626317
0.0649307
0.0651159
0.0656433
0.0651991
0.0653124
0.0647364
0.0686552
0.0646249
0.0646023
0.0530389
0.0647286
0.0602842
0.0647611
0.0669966
0.0647859
0.0647975
0.0646211
0.0646944
0.0645352
0.0657877
0.064649
0.0654142
0.0647621
0.060472
0.0644938
0.0647969
0.0618115
0.0658869
0.0650448
0.0648014
0.0644883
0.0677759
0.0646765
0.0651984
0.0650558
0.0648718
0.0654253
0.0671217
0.064799
0.0576294
0.064632
0.0652161
0.0644821
0.0645677
0.0645821
0.0673815
0.0560364
0.0678232
0.0656992
0.0671603
0.0660893
0.0653969
0.0642359
0.0651739
0.0661573
0.066051
0.064953
0.0648717
0.0646027
0.0661211
0.0647937
0.0594183
0.0664187
0.0649824
0.0654939
0.065879
0.0658757
0.0646307
0.0644125
0.0657983
0.0651742
0.0664211
0.0645338
0.064544
0.0667397
0.0644555
0.0646595
0.0501279
0.0617009
0.0646643
0.0647059
0.0646178
0.0665107
0.0644617
0.0644041
0.0645025
0.0647066
0.0602196
0.0645798
0.0655359
0.0647148
0.064402
0.0657097
0.0584162
0.0658136
0.0650435
0.0673326
0.0650825
0.0653041
0.0308051
0.035174
0.0542311
0.0554117
0.0665695
0.0647145
0.0649959
0.0622969
0.0645016
0.0648624
0.0645569
0.0647881
0.0646854
0.0649367
0.0643731
0.0625968
0.0647164
0.0666847
0.0276121
0.0650935
0.0427622
0.0644383
0.0650865
0.0643863
0.066555
0.0645054
0.0644744
0.0662568
0.0582261
0.0616855
0.0658757
0.0523916
0.0568249
0.0603868
0.0649704
0.0552291
0.0647141
0.0652485
0.0659442
0.0644687
0.064945
0.0645285
0.0644129
0.0648234
0.0645697
0.0651223
0.0645607
0.06366
0.0646325
0.0509913
0.0660171
0.0643644
0.064511
0.0648791
0.0646204
0.0643571
0.0660145
0.0661182
0.0488164
0.0666138
0.0588257
0.0653681
0.0645937
0.0657096
0.0640281
0.0648968
0.0641623
0.0657996
0.0646337
0.0643852
0.0658297
0.0660863
0.0593356
0.0645973
0.064172
0.0557695
0.0579241
0.064466
0.0517805
0.0653931
0.0654917
0.0568465
0.065046
0.0646402
0.06434
0.0613844
0.0660736
0.0640031
0.0322719
0.0641691
0.0648285
0.0648545
0.0639607
0.0644342
0.0652284
0.0641112
0.065875
0.0655
0.0642388
0.064704
0.0659892
0.0643139
0.0647677
0.0646402
0.064806
0.0651888
0.0644199
0.0641574
0.0644778
0.0643555
0.0644646
0.0656773
0.0647857
0.0651053
0.0284941
0.0663175
0.0344354
0.0645049
0.0644251
0.0356323
0.063978
0.0645112
0.0642868
0.0649081
0.0639961
0.0662243
0.0646375
0.0645208
0.0650573
0.0651144
0.0645524
0.063928
0.0641397
0.0612424
0.0617352
0.0647523
0.0654258
0.0645551
0.0517769
0.0640664
0.0645654
0.0621852
0.0643981
0.0645782
0.0646645
0.06485
0.0639932
0.0639358
0.065934
0.0641174
0.0500737
0.0641631
0.0642662
0.0264729
0.0645312
0.0511322
0.0639795
0.064847
0.0538396
0.0644035
0.0643236
0.0645669
0.0660839
0.0646308
0.064694
0.0640907
0.0630101
0.0472727
0.0651916
0.0656714
0.065723
0.0656653
0.0649665
0.0639129
0.0652309
0.0645491
0.059805
0.0639581
0.0536243
0.0643831
0.0642573
0.0654926
0.0635678
0.0644278
0.0654195
0.0644177
0.0493529
0.0655158
0.0413892
0.0563235
0.0645693
0.0638866
0.0643599
0.063931
0.0617712
0.0579821
0.0651641
0.0640597
0.0615559
0.0643659
0.0645309
0.0628036
0.0657556
0.0662414
0.0644504
0.0638994
0.0649013
0.064289
0.0633394
0.0644915
0.0540973
0.0647073
0.0633555
0.0644556
0.064565
0.0610292
0.0490552
0.0638785
0.0617577
0.0356103
0.0644786
0.0638651
0.0644942
0.064222
0.0650187
0.0632517
0.0642253
0.0398269
0.0633576
0.0646484
0.045686
0.0638103
0.0328916
0.0642968
0.0647577
0.062807
0.0612585
0.0633466
0.0666199
0.0607041
0.0645003
0.0652509
0.0640261
0.0643402
0.0617392
0.060094
0.0633245
0.0604048
0.06432
0.0651877
0.0487023
0.0643491
0.0643708
0.0645955
0.0429473
0.0649536
0.0643789
0.0631976
0.063293
0.0642518
0.0645377
0.0638297
0.0559891
0.0502645
0.0628461
0.0646102
0.0644976
0.0609639
0.063254
0.0628398
0.0592871
0.062819
0.064603
0.0646191
0.064291
0.0641909
0.0632026
0.0627148
0.0646723
0.0628178
0.057034
0.0650517
0.0670003
0.0653425
0.0571904
0.0632074
0.0635666
0.0648039
0.0644193
0.0651614
0.0638721
0.0644228
0.0643981
0.062782
0.0639897
0.0653742
0.0650442
0.0654123
0.0283668
0.0585428
0.0583529
0.0644313
0.0627349
0.0644762
0.0671935
0.0646113
0.0573437
0.0627234
0.06309
0.0645586
0.0528803
0.0557766
0.0626795
0.0669957
0.0635492
0.063792
0.063031
0.0649926
0.0665426
0.0645042
0.0647182
0.0642128
0.0594055
0.0642968
0.0642788
0.0644296
0.0626189
0.0652346
0.0639385
0.0631566
0.0684044
0.0661362
0.064154
0.0651771
0.0644454
0.0609677
0.064324
0.0625738
0.0609659
0.0477819
0.0640105
0.0571212
0.0650582
0.0639496
0.0588115
0.0602076
0.0648442
0.0613351
0.0625585
0.0609481
0.0643315
0.0644125
0.0350635
0.0644577
0.0609117
0.0637527
0.0336919
0.0643634
0.0608582
0.0577515
0.0626074
0.0609712
0.0556142
0.0643536
0.0647587
0.0642852
0.0607917
0.0644151
0.0383919
0.0318977
0.0631043
0.0643623
0.0650079
0.0684347
0.0643835
0.0628567
0.059552
0.060715
0.0608225
0.0513552
0.0641723
0.043435
0.0607399
0.0642366
0.0643898
0.064115
0.0632345
0.06435
0.0241054
0.0277137
0.0662359
0.0635188
0.0625
0.0650833
0.0595044
0.0639074
0.0642537
0.0622502
0.0644915
0.0649108
0.0636916
0.0444525
0.0643477
0.059436
0.0416347
0.0545916
0.0642597
0.0643019
0.0648676
0.0593484
0.059588
0.0637113
0.0627103
0.0579826
0.0552863
0.0592471
0.0642937
0.0301137
0.0521979
0.0605057
0.0606283
0.0455918
0.0630484
0.0591383
0.0310938
0.025279
0.0643199
0.0566821
0.0647868
0.0642082
0.0649946
0.0651481
0.0635377
0.0642486
0.0635611
0.0642972
0.0642784
0.0308846
0.0424057
0.0624427
0.0331095
0.0597467
0.0642966
0.0520943
0.0590296
0.0651199
0.0595969
0.0594242
0.0609292
0.0665764
0.0642273
0.0642835
0.0492186
0.067453
0.0642018
0.0641576
0.0591882
0.0645168
0.0593846
0.0642305
0.0547007
0.03451
0.0605429
0.0641311
0.0638641
0.0439166
0.0546783
0.0640745
0.0466978
0.0290403
0.0635733
0.0560641
0.0636684
0.0546293
0.0600433
0.0641074
0.0648631
0.0642563
0.0547201
0.0641918
0.0545538
0.0629907
0.0591637
0.0511447
0.0635412
0.0544583
0.0649604
0.0623877
0.0643192
0.0402918
0.0595412
0.0635823
0.0589344
0.0637147
0.0231205
0.0262763
0.0641936
0.0623869
0.0543484
0.0632198
0.0647902
0.0626806
0.0587839
0.0435614
0.0442219
0.0627725
0.0604547
0.0642101
0.0647172
0.0630162
0.0629567
0.0630268
0.0548837
0.0640528
0.0510705
0.06501
0.0635889
0.0641328
0.0548261
0.051595
0.0645237
0.05422
0.0642203
0.0509918
0.0363269
0.0642318
0.0508838
0.063064
0.0507434
0.0635297
0.0313876
0.0578993
0.0545156
0.0450236
0.0641935
0.0635633
0.0505793
0.0297727
0.0558461
0.0588491
0.0588566
0.0543762
0.0504039
0.0511765
0.0648589
0.0638202
0.0553618
0.0591932
0.0540255
0.0483295
0.0629348
0.0643303
0.0636244
0.0546498
0.0603199
0.0534965
0.0634913
0.0609855
0.0340994
0.0630602
0.0412437
0.0640319
0.0635807
0.0640731
0.0623317
0.0611783
0.0502313
0.0630275
0.0560984
0.0639953
0.0579298
0.0609766
0.0630247
0.0641594
0.0540918
0.0292826
0.0640887
0.0603671
0.0549656
0.0648276
0.0611298
0.0474663
0.0629913
0.0319978
0.0514984
0.0609281
0.0688025
0.0407345
0.0585432
0.0587719
0.0629988
0.0679386
0.0535259
0.0597906
0.0639364
0.0318561
0.0595445
0.0611175
0.0597228
0.0500916
0.064156
0.0280162
0.0594993
0.0637568
0.0505352
0.0634479
0.0647567
0.0509299
0.0641309
0.0641476
0.0613431
0.0589586
0.0613723
0.0644959
0.0352441
0.0389301
0.0618483
0.0510793
0.0549833
0.0284919
0.0640134
0.0596954
0.0407591
0.0629498
0.0539561
0.0594924
0.0649071
0.0429836
0.0329324
0.0546473
0.0608789
0.038216
0.0231052
0.0240377
0.0542316
0.0579037
0.0509997
0.0509847
0.0628807
0.0635577
0.063578
0.0611084
0.0630073
0.0638771
0.0365448
0.064076
0.0246892
0.0273323
0.0643107
0.0594402
0.0534407
0.0301115
0.063776
0.0500698
0.0622778
0.0336937
0.0524879
0.0339192
0.0634002
0.0338441
0.0578369
0.0478835
0.0341362
0.0647594
0.0397406
0.0596828
0.0602878
0.0304249
0.0343072
0.0546866
0.0344142
0.0560726
0.0457275
0.0344521
0.0499872
0.0581161
0.0510195
0.0517779
0.0422082
0.028136
0.0344091
0.0640387
0.058156
0.0629034
0.0639853
0.0546043
0.0586995
0.0541814
0.0633497
0.0641797
0.0639516
0.0337994
0.0543599
0.0452674
0.0610923
0.0600855
0.0640602
0.0589588
0.0409487
0.0272628
0.0523769
0.0342826
0.0648799
0.0645177
0.063817
0.0538327
0.0596637
0.0492921
0.054733
0.0628532
0.0317265
0.0577467
0.0608127
0.049862
0.0324843
0.0467626
0.0510492
0.0540657
0.0593836
0.0632972
0.0331819
0.0639421
0.0628295
0.0328477
0.061069
0.0646847
0.0376326
0.0511507
0.0631009
0.06295
0.034052
0.0506768
0.0637239
0.0622225
0.0326243
0.0638727
0.0498954
0.0508904
0.0628005
0.0272119
0.0639145
0.0432389
0.063528
0.0644232
0.0637477
0.0505549
0.0537376
0.0634873
0.0487984
0.0642373
0.0475375
0.0596368
0.0355326
0.0360899
0.0333927
0.0322516
0.0602166
0.0382471
0.0637144
0.0547649
0.0484769
0.0336801
0.0261245
0.0553462
0.0632408
0.0636875
0.0646225
0.0526855
0.0588683
0.0606964
0.0325202
0.0610391
0.0500598
0.0631659
0.0636269
0.0510551
0.0636301
0.058633
0.0530292
0.0484655
0.033775
0.0627452
0.0634532
0.0511391
0.0627733
0.045833
0.0241283
0.0539573
0.0297307
0.023827
0.061004
0.0235078
0.0626794
0.0606856
0.0231567
0.059603
0.0335617
0.0228044
0.0630104
0.0530489
0.0323929
0.0224829
0.0222279
0.0621651
0.0650258
0.0625655
0.0592821
0.053728
0.0633204
0.0504666
0.0630768
0.0434271
0.0421018
0.022064
0.0601552
0.0547865
0.0609622
0.0325252
0.0632555
0.0360384
0.0337585
0.0626732
0.0609009
0.0329228
0.0317225
0.0556925
0.0434733
0.0220047
0.032352
0.0595638
0.0250602
0.048666
0.0625637
0.0607623
0.0593052
0.062086
0.0244525
0.0243406
0.0510493
0.0595197
0.0241688
0.0628112
0.0335462
0.0622635
0.049814
0.0330158
0.0213253
0.0245002
0.0336965
0.0556198
0.0459963
0.0633505
0.0593652
0.0594646
0.064561
0.0500925
0.0600951
0.064298
0.0623731
0.0238978
0.0640946
0.0539572
0.0585687
0.0284466
0.0629786
0.0220947
0.064105
0.0625691
0.0261113
0.0288876
0.0607918
0.0618876
0.0603497
0.0547739
0.0247406
0.0547969
0.03006
0.0334268
0.0300954
0.0590958
0.0631357
0.060466
0.0599978
0.0634118
0.0546883
0.0322481
0.0585046
0.0298099
0.0255368
0.042911
0.0235062
0.0547986
0.0311443
0.0613511
0.0642336
0.0536414
0.0590684
0.054802
0.0537822
0.0416427
0.0638969
0.0221642
0.0228304
0.0612247
0.0252521
0.0240041
0.0628196
0.0508993
0.0509595
0.0270723
0.0597164
0.024534
0.0338283
0.0625839
0.0642746
0.0258041
0.0321784
0.0584247
0.0253886
0.0646226
0.0543804
0.0248439
0.0591075
0.0503395
0.0582735
0.029891
0.0535738
0.0635388
0.0185097
0.0208208
0.0622513
0.0403032
0.0510361
0.0622966
0.0591266
0.0624774
0.0507221
0.0509914
0.0252225
0.0602764
0.0601361
0.0582404
0.0626793
0.0587757
0.0505097
0.0331691
0.0264821
0.0533847
0.0636658
0.053997
0.0480573
0.0419278
0.0343096
0.0242913
0.0596784
0.0534989
0.0344074
0.0617566
0.033379
0.022179
0.0501467
0.0559348
0.0576405
0.0535189
0.0233087
0.0243477
0.0497448
0.0331128
0.0341986
0.0344549
0.0505676
0.0501329
0.0557425
0.0590211
0.0534413
0.0275754
0.0229595
0.0587302
0.0484173
0.0580296
0.0321104
0.0251998
0.0582502
0.0611225
0.0510161
0.0586099
0.0496217
0.0529249
0.0608421
0.0343015
0.024775
0.05322
0.0283996
0.0496831
0.0227851
0.0500481
0.0231084
0.0339577
0.0240234
0.0578346
0.0211415
0.0575952
0.0336243
0.0524631
0.0500958
0.022449
0.0334483
0.0501148
0.0332132
0.0332094
0.0219701
0.0530772
0.0227631
0.0525083
0.0220531
0.0437858
0.056587
0.0480651
0.0247423
0.0249993
0.0319536
0.0317771
0.0340816
0.0333992
0.0234259
0.02143
0.0496881
0.0517592
0.0550581
0.0495563
0.0241041
0.0199848
0.0301917
0.0435563
0.050625
0.0483457
0.049422
0.0496982
0.0545469
0.0489937
0.0224932
0.0314896
0.0475998
0.0224686
0.0304979
0.0216891
0.029179
0.0429473
0.0457293
0.019198
0.019871
0.0154412
0.0145846
0.0223579
0.0193041
0.0216404
0.0332359
0.0237331
0.0332278
0.0218265
0.0220776
0.0331105
0.0213789
0.022148
0.033268
0.0312898
0.0238492
0.0251265
0.0230169
0.0309848
0.0244093
0.031553
0.0190414
0.0146404
0.014773
0.0295475
0.0197339
0.0209161
0.0324152
0.0247769
0.0421671
0.0680976
0.0473933
0.0491359
0.0483941
0.0325788
0.020708
0.0620094
0.0622674
0.0572352
0.0146569
0.0432929
0.0652149
0.0527602
0.0430954
0.029542
0.0295772
0.0685326
0.0597667
0.0357135
0.0155712
0.0374677
0.0651963
0.0326629
0.0630246
0.0630554
0.0414044
0.0575263
0.0424291
0.062897
0.0179889
0.0173801
0.0389978
0.0309782
0.0434501
0.0295194
0.036278
0.0332904
0.0621059
0.0414296
0.0580339
0.0347516
0.0306847
0.0352172
0.0443683
0.0456598
0.0651489
0.0414998
0.0463688
0.0481463
0.0604805
0.0623639
0.0456068
0.0556463
0.0686537
0.0527542
0.0329003
0.0293908
0.0424989
0.041962
0.0310653
0.042851
0.035611
0.0303093
0.0328843
0.0204458
0.0198725
0.0603003
0.0462209
0.0379215
0.0687777
0.0296623
0.0384431
0.0485673
0.0401723
0.0444334
0.0463473
0.0500896
0.0485661
0.0454029
0.0601301
0.0257138
0.0377852
0.0529843
0.0460768
0.0460527
0.0678334
0.0471714
0.0514245
0.0216335
0.0552904
0.067497
0.052732
0.0390576
0.0397152
0.0604224
0.0552198
0.0671453
0.0322021
0.0398207
0.0231371
0.0586814
0.0678489
0.0369821
0.0676938
0.0615065
0.0274704
0.0640014
0.0676342
0.0551143
0.0652281
0.0588122
0.0453662
0.046641
0.0266966
0.0648003
0.0280719
0.0286722
0.0673043
)
;

boundaryField
{
    patch0
    {
        type            kqRWallFunction;
        value           nonuniform List<scalar> 
4010
(
0.0639397
0.0639397
0.0647705
0.0647705
0.0617383
0.0617383
0.0629806
0.0629806
0.0622501
0.0622501
0.060659
0.060659
0.0631795
0.0631795
0.0600299
0.0600299
0.063032
0.063032
0.062942
0.062942
0.0616252
0.0616252
0.0636708
0.0636708
0.0476494
0.0476494
0.0635139
0.0635139
0.0662307
0.0662307
0.0660501
0.0660501
0.0477761
0.0477761
0.0651
0.0651
0.063126
0.063126
0.0658476
0.0658476
0.0356319
0.0356319
0.0646165
0.0646165
0.0577749
0.0577749
0.0665365
0.0665365
0.0652508
0.0652508
0.0654451
0.0654451
0.0655746
0.0655746
0.0671376
0.0671376
0.0513739
0.0513739
0.0658853
0.0658853
0.053676
0.053676
0.0654076
0.0654076
0.0485004
0.0485004
0.0505071
0.0505071
0.0663107
0.0663107
0.0615644
0.0615644
0.0651631
0.0651631
0.0551515
0.0551515
0.0639619
0.0639619
0.0506446
0.0506446
0.0654765
0.0654765
0.0407577
0.0407577
0.0654766
0.0654766
0.0559729
0.0559729
0.066121
0.066121
0.0450069
0.0450069
0.0635088
0.0635088
0.0680048
0.0680048
0.0314598
0.0314598
0.0304105
0.0304105
0.0632153
0.0632153
0.0415137
0.0415137
0.0636907
0.0636907
0.0625056
0.0625056
0.0425888
0.0425888
0.0663785
0.0663785
0.0625774
0.0625774
0.0674844
0.0674844
0.0670864
0.0670864
0.0652321
0.0652321
0.0593884
0.0593884
0.0660546
0.0660546
0.0589749
0.0589749
0.0634136
0.0634136
0.0610659
0.0610659
0.0683121
0.0683121
0.0655626
0.0655626
0.0612842
0.0612842
0.0452264
0.0452264
0.061664
0.061664
0.0353846
0.0353846
0.0658352
0.0658352
0.0629579
0.0629579
0.0666349
0.0666349
0.0667151
0.0667151
0.0474051
0.0474051
0.0684471
0.0684471
0.0676099
0.0676099
0.0680143
0.0680143
0.0615766
0.0615766
0.0682239
0.0682239
0.0655534
0.0655534
0.0651796
0.0651796
0.0345457
0.0345457
0.0595355
0.0595355
0.0633607
0.0633607
0.0678122
0.0678122
0.0664107
0.0664107
0.0297628
0.0297628
0.0338404
0.0338404
0.0656691
0.0656691
0.0654093
0.0654093
0.0427144
0.0427144
0.0465173
0.0465173
0.0352086
0.0352086
0.0570695
0.0570695
0.0681675
0.0681675
0.0680216
0.0680216
0.065333
0.065333
0.0446354
0.0446354
0.053518
0.053518
0.0353982
0.0353982
0.0654694
0.0654694
0.0653855
0.0653855
0.0487477
0.0487477
0.0688333
0.0688333
0.0454658
0.0454658
0.0515984
0.0515984
0.0650811
0.0650811
0.0429677
0.0429677
0.0680494
0.0680494
0.0448596
0.0448596
0.0628464
0.0628464
0.0661955
0.0661955
0.0681863
0.0681863
0.031829
0.031829
0.0550104
0.0550104
0.0658567
0.0658567
0.065191
0.065191
0.0685043
0.0685043
0.0583694
0.0583694
0.0375004
0.0375004
0.0349209
0.0349209
0.0331045
0.0331045
0.0655929
0.0655929
0.05353
0.05353
0.0479034
0.0479034
0.0679372
0.0679372
0.043142
0.043142
0.0478827
0.0478827
0.0680765
0.0680765
0.0463304
0.0463304
0.0449491
0.0449491
0.0663473
0.0663473
0.0397404
0.0397404
0.0462528
0.0462528
0.0534677
0.0534677
0.0455309
0.0455309
0.0668697
0.0668697
0.0639885
0.0639885
0.0681401
0.0681401
0.0658081
0.0658081
0.0501618
0.0501618
0.0501618
0.045408
0.045408
0.045408
0.0533993
0.0533993
0.058054
0.058054
0.0519138
0.0519138
0.0387883
0.0387883
0.064984
0.064984
0.0650053
0.0650053
0.0623332
0.0623332
0.0379021
0.0379021
0.0379021
0.0401752
0.0401752
0.0466092
0.0466092
0.0549132
0.0549132
0.0546033
0.0546033
0.0370745
0.0370745
0.0556101
0.0556101
0.0675422
0.0675422
0.0588
0.0588
0.066503
0.066503
0.0467385
0.0467385
0.0476849
0.0476849
0.0389406
0.0389406
0.0607832
0.0607832
0.0490379
0.0490379
0.0547282
0.0547282
0.0362777
0.0362777
0.0685807
0.0685807
0.0435041
0.0435041
0.0489534
0.0489534
0.0538667
0.0538667
0.0688805
0.0688805
0.0652902
0.0652902
0.0675836
0.0675836
0.043028
0.043028
0.0659099
0.0659099
0.0372005
0.0372005
0.0631438
0.0631438
0.0485166
0.0485166
0.0541403
0.0541403
0.065847
0.065847
0.0678331
0.0678331
0.057074
0.057074
0.030883
0.030883
0.0651879
0.0651879
0.0407521
0.0407521
0.0600363
0.0600363
0.0685598
0.0685598
0.0671269
0.0671269
0.0480989
0.0480989
0.0557216
0.0557216
0.0675915
0.0675915
0.0499429
0.0499429
0.0566569
0.0566569
0.0393658
0.0393658
0.0393658
0.0635606
0.0635606
0.0440918
0.0440918
0.0472035
0.0472035
0.0431958
0.0431958
0.0468817
0.0468817
0.0665205
0.0665205
0.0475989
0.0475989
0.0561454
0.0561454
0.0559657
0.0559657
0.0563204
0.0563204
0.0517683
0.0517683
0.03876
0.03876
0.0382172
0.0382172
0.0359045
0.0359045
0.0359045
0.0404649
0.0404649
0.0439611
0.0439611
0.0669024
0.0669024
0.0594002
0.0594002
0.0616193
0.0616193
0.06854
0.06854
0.0648655
0.0648655
0.0498784
0.0498784
0.0536732
0.0536732
0.0679823
0.0679823
0.0537128
0.0537128
0.0651012
0.0651012
0.050064
0.050064
0.0667929
0.0667929
0.0583741
0.0583741
0.06447
0.06447
0.0670102
0.0670102
0.0687807
0.0687807
0.0599391
0.0599391
0.0439851
0.0439851
0.0424465
0.0424465
0.0654941
0.0654941
0.0496844
0.0496844
0.0384246
0.0384246
0.0651607
0.0651607
0.0348421
0.0348421
0.0348421
0.0670459
0.0670459
0.0565913
0.0565913
0.0501026
0.0501026
0.0408487
0.0408487
0.0408487
0.0656663
0.0656663
0.050898
0.050898
0.0672015
0.0672015
0.0393582
0.0393582
0.0580115
0.0580115
0.0360565
0.0360565
0.0600082
0.0600082
0.067544
0.067544
0.0679864
0.0679864
0.0688688
0.0688688
0.0651351
0.0651351
0.0420185
0.0420185
0.0618994
0.0618994
0.044649
0.044649
0.0685749
0.0685749
0.0667088
0.0667088
0.0653247
0.0653247
0.0539393
0.0539393
0.0532375
0.0532375
0.0586227
0.0586227
0.0575832
0.0575832
0.0529957
0.0529957
0.065172
0.065172
0.068445
0.068445
0.0653806
0.0653806
0.0658165
0.0658165
0.0455609
0.0455609
0.068787
0.068787
0.0465087
0.0465087
0.049525
0.049525
0.0459188
0.0459188
0.0635749
0.0635749
0.045566
0.045566
0.0605163
0.0605163
0.0653785
0.0653785
0.0681578
0.0681578
0.061754
0.061754
0.0655181
0.0655181
0.0455599
0.0455599
0.0458943
0.0458943
0.0479606
0.0479606
0.0426511
0.0426511
0.0426511
0.0656435
0.0656435
0.062806
0.062806
0.0603781
0.0603781
0.0672679
0.0672679
0.0673112
0.0673112
0.0449619
0.0449619
0.0617277
0.0617277
0.0541116
0.0541116
0.0541775
0.0541775
0.0633943
0.0633943
0.0657209
0.0657209
0.066863
0.066863
0.0309459
0.0309459
0.0618996
0.0618996
0.0665668
0.0665668
0.0416303
0.0416303
0.068524
0.068524
0.0667175
0.0667175
0.0457331
0.0457331
0.0457331
0.0469463
0.0469463
0.0672546
0.0672546
0.064785
0.064785
0.0635659
0.0635659
0.0643817
0.0643817
0.0511163
0.0511163
0.0674004
0.0674004
0.0571762
0.0571762
0.0668267
0.0668267
0.0378709
0.0378709
0.0649213
0.0649213
0.0641081
0.0641081
0.0651872
0.0651872
0.0682978
0.0682978
0.051114
0.051114
0.0579241
0.0579241
0.063179
0.063179
0.0572228
0.0572228
0.0603722
0.0603722
0.0644159
0.0644159
0.0470788
0.0470788
0.0484783
0.0484783
0.064399
0.064399
0.0655536
0.0655536
0.0684939
0.0684939
0.0580994
0.0580994
0.0627706
0.0627706
0.0667109
0.0667109
0.0669488
0.0669488
0.047577
0.047577
0.0653703
0.0653703
0.0652807
0.0652807
0.0649352
0.0649352
0.0673897
0.0673897
0.0657757
0.0657757
0.065238
0.065238
0.0588644
0.0588644
0.0648418
0.0648418
0.0507813
0.0507813
0.0686329
0.0686329
0.065401
0.065401
0.0653251
0.0653251
0.0420035
0.0420035
0.0663644
0.0663644
0.0656856
0.0656856
0.0444452
0.0444452
0.0654233
0.0654233
0.0647121
0.0647121
0.0652361
0.0652361
0.065325
0.065325
0.0565834
0.0565834
0.0487225
0.0487225
0.0668344
0.0668344
0.0400262
0.0400262
0.0687603
0.0687603
0.0328134
0.0328134
0.0649718
0.0649718
0.0597211
0.0597211
0.0507049
0.0507049
0.0658004
0.0658004
0.066461
0.066461
0.0669761
0.0669761
0.0652709
0.0652709
0.0652899
0.0652899
0.052894
0.052894
0.065292
0.065292
0.0507041
0.0507041
0.0654704
0.0654704
0.0614664
0.0614664
0.0673731
0.0673731
0.0617187
0.0617187
0.0641474
0.0641474
0.0656406
0.0656406
0.0652158
0.0652158
0.0342522
0.0342522
0.0663323
0.0663323
0.0662175
0.0662175
0.0652478
0.0652478
0.0654096
0.0654096
0.0655016
0.0655016
0.0687516
0.0687516
0.0609716
0.0609716
0.062793
0.062793
0.04844
0.04844
0.067511
0.067511
0.0662445
0.0662445
0.0652622
0.0652622
0.0652136
0.0652136
0.0560508
0.0560508
0.0497454
0.0497454
0.0651993
0.0651993
0.0633224
0.0633224
0.0652545
0.0652545
0.0631288
0.0631288
0.0427545
0.0427545
0.0427545
0.0651729
0.0651729
0.0651963
0.0651963
0.0674736
0.0674736
0.0656938
0.0656938
0.0602087
0.0602087
0.0681248
0.0681248
0.0460294
0.0460294
0.0475436
0.0475436
0.0322802
0.0322802
0.0322802
0.0651234
0.0651234
0.0678354
0.0678354
0.0652554
0.0652554
0.0627004
0.0627004
0.0651615
0.0651615
0.065719
0.065719
0.0651332
0.0651332
0.0657128
0.0657128
0.0582652
0.0582652
0.0658127
0.0658127
0.0646872
0.0646872
0.0681888
0.0681888
0.0664046
0.0664046
0.0645976
0.0645976
0.0670266
0.0670266
0.0665279
0.0665279
0.0530316
0.0530316
0.0679624
0.0679624
0.0420703
0.0420703
0.0651206
0.0651206
0.0668985
0.0668985
0.0682957
0.0682957
0.0599948
0.0599948
0.0651284
0.0651284
0.0650683
0.0650683
0.0651233
0.0651233
0.0683186
0.0683186
0.0650817
0.0650817
0.0649702
0.0649702
0.064658
0.064658
0.0650832
0.0650832
0.0670374
0.0670374
0.0543603
0.0543603
0.061866
0.061866
0.0650821
0.0650821
0.0507695
0.0507695
0.0650514
0.0650514
0.0638963
0.0638963
0.0585913
0.0585913
0.0652481
0.0652481
0.0515673
0.0515673
0.0515673
0.0656806
0.0656806
0.0677885
0.0677885
0.0645725
0.0645725
0.0651262
0.0651262
0.0660034
0.0660034
0.0650551
0.0650551
0.0645112
0.0645112
0.0673673
0.0673673
0.0650394
0.0650394
0.06531
0.06531
0.067415
0.067415
0.0660868
0.0660868
0.0648896
0.0648896
0.0654114
0.0654114
0.0684839
0.0684839
0.0650215
0.0650215
0.0532184
0.0532184
0.0648767
0.0648767
0.0462964
0.0462964
0.0651208
0.0651208
0.065118
0.065118
0.0659606
0.0659606
0.0632041
0.0632041
0.0674381
0.0674381
0.0650016
0.0650016
0.0649412
0.0649412
0.0625318
0.0625318
0.0675511
0.0675511
0.0571452
0.0571452
0.068553
0.068553
0.0593607
0.0593607
0.0662518
0.0662518
0.0652293
0.0652293
0.0655468
0.0655468
0.0655362
0.0655362
0.0653421
0.0653421
0.0649836
0.0649836
0.0651115
0.0651115
0.0649597
0.0649597
0.0649747
0.0649747
0.0649409
0.0649409
0.0654621
0.0654621
0.0649578
0.0649578
0.0679427
0.0679427
0.0542736
0.0542736
0.0649615
0.0649615
0.0648646
0.0648646
0.0662353
0.0662353
0.0664399
0.0664399
0.0678512
0.0678512
0.0652908
0.0652908
0.0650057
0.0650057
0.0649364
0.0649364
0.0643773
0.0643773
0.0665631
0.0665631
0.0659694
0.0659694
0.0542783
0.0542783
0.0649223
0.0649223
0.0471119
0.0471119
0.0646177
0.0646177
0.0661292
0.0661292
0.0649004
0.0649004
0.0648761
0.0648761
0.0669178