/*--------------------------------*- C++ -*----------------------------------*\
  =========                 |
  \\      /  F ield         | OpenFOAM: The Open Source CFD Toolbox
   \\    /   O peration     | Website:  https://openfoam.org
    \\  /    A nd           | Version:  8
     \\/     M anipulation  |
\*---------------------------------------------------------------------------*/
FoamFile
{
    version     2.0;
    format      ascii;
    class       volScalarField;
    location    "0.2";
    object      nut;
}
// * * * * * * * * * * * * * * * * * * * * * * * * * * * * * * * * * * * * * //

dimensions      [0 2 -1 0 0 0 0];

internalField   nonuniform List<scalar> 
1924
(
0.00283301
0.00285119
0.0027777
0.00279869
0.0027966
0.00274686
0.00279828
0.00272218
0.00279784
0.00280352
0.0027583
0.00281024
0.00244525
0.00280403
0.00287785
0.00287385
0.00245095
0.00284438
0.00281187
0.00286283
0.00210931
0.00283203
0.00268975
0.00288045
0.00285321
0.00286093
0.00286334
0.00290086
0.00254252
0.00287017
0.00259939
0.00285853
0.00249718
0.00252309
0.00288123
0.00277141
0.00284876
0.00263286
0.00282674
0.00252621
0.0028595
0.00225361
0.00286123
0.0026472
0.00287523
0.00240655
0.00281966
0.00291764
0.00198297
0.00195298
0.00281261
0.00227653
0.00280543
0.00279586
0.00232723
0.00288325
0.00279845
0.00290595
0.00289788
0.00285578
0.00272847
0.00287395
0.00271804
0.00281387
0.00276265
0.00292509
0.00286306
0.00276613
0.00240516
0.00277867
0.00210542
0.00286909
0.00280365
0.00288741
0.00288948
0.0024355
0.00292751
0.00290939
0.00291777
0.00277662
0.00292086
0.00286322
0.00285509
0.00207559
0.00274866
0.00280827
0.00291514
0.00288172
0.00193275
0.00205843
0.00286547
0.00286005
0.00232769
0.00242885
0.00209483
0.00266774
0.0029204
0.00291637
0.00285812
0.0023653
0.0025844
0.002101
0.0028612
0.00285944
0.00248085
0.00293474
0.0023904
0.00253487
0.00285233
0.00233121
0.00291723
0.00238832
0.00280647
0.00287741
0.00292166
0.00199474
0.00261711
0.00286951
0.00285537
0.00292867
0.00271508
0.000826985
0.002089
0.002036
0.0028637
0.00258938
0.00244727
0.00291667
0.00233313
0.000862994
0.00291783
0.00240733
0.000276023
0.00288089
0.00222616
0.00241739
0.00258558
0.00239812
0.00288935
0.00283021
0.00292203
0.00286852
0.000228395
0.000221514
0.00257984
0.00269129
0.0025356
0.00220938
0.00285007
0.00285127
0.00279183
0.000415633
0.00225045
0.00240898
0.00260855
0.0026078
0.000822428
0.00263894
0.00290506
0.000314654
0.00288414
0.00242145
0.00243134
0.000842486
0.00275668
0.00249105
0.00262272
0.000616756
0.00293017
0.00233927
0.00251571
0.00257663
0.00293542
0.00285722
0.00290784
0.00230349
0.00287072
0.000496585
0.00280887
0.00244542
0.00256292
0.00286926
0.002914
0.00266818
0.00196449
0.00285671
0.00224586
0.0027151
0.00292895
0.0028982
0.00241505
0.00261774
0.00290605
0.00247555
0.00265593
0.000423489
0.00280776
0.00232742
0.00239691
0.00231726
0.000536093
0.00288736
0.00244107
0.00262311
0.00267599
0.00261911
0.00251499
0.00219541
0.00218669
0.000189169
0.000858683
0.00234575
0.00289149
0.0027232
0.00275388
0.00292882
0.00284735
0.00247199
0.00255917
0.00291801
0.00256889
0.00285263
0.00250166
0.00288944
0.00267759
0.00283111
0.00289216
0.00293286
0.00273038
0.00233431
0.000380011
0.00286162
0.00245275
0.000445239
0.00285052
0.000182537
0.00289515
0.00262982
0.00249356
0.000431345
0.00286521
0.00248538
0.00289849
0.00221166
0.000438552
0.00211975
0.00271653
0.00290598
0.00291734
0.00293491
0.00285465
0.000749175
0.00277663
0.0023598
0.00292907
0.00288818
0.00285827
0.00254881
0.002558
0.00267981
0.00266953
0.0025647
0.0028545
0.00292722
0.00285919
0.00287047
0.0023832
0.00293337
0.00241614
0.000543679
0.00238803
0.0028197
0.00242761
0.00271334
0.00285901
0.00291943
0.00275988
0.00285998
0.00237742
0.00237745
0.000622776
0.000313996
0.00286493
0.0027956
0.00275553
0.00290135
0.00289953
0.000755813
0.00275803
0.00255813
0.00258687
0.00281421
0.00286556
0.00289152
0.00196378
0.00278188
0.00288517
0.00228704
0.00292851
0.00288843
0.000437085
0.00240848
0.00289984
0.0028455
0.00280523
0.0028234
0.00253108
0.00290296
0.00262669
0.0028911
0.00217273
0.0028494
0.00282624
0.002852
0.00292244
0.00253308
0.00266887
0.0027948
0.00266111
0.00273911
0.0028382
0.00240929
0.00244248
0.00283727
0.00286102
0.0029266
0.00265768
0.00277589
0.00288614
0.00289094
0.00241065
0.00285874
0.00285589
0.00283978
0.0029061
0.00286742
0.00285585
0.0026982
0.00284298
0.00249746
0.00292957
0.00285982
0.00285758
0.00229823
0.00288075
0.00286572
0.00036441
0.00285988
0.00284449
0.00285033
0.00285834
0.000407134
0.000570509
0.00289089
0.00223649
0.00293233
0.00202636
0.00284152
0.00269263
0.00251462
0.00286823
0.00288279
0.00289392
0.00285654
0.00285755
0.00254706
0.00285738
0.00249447
0.00285843
0.00276046
0.00290242
0.00276625
0.00281647
0.00286462
0.00285564
0.000475263
0.00288
0.00287754
0.00285666
0.00285955
0.00286159
0.00293242
0.00273155
0.00279584
0.0024316
0.00290539
0.0028816
0.00285632
0.00285564
0.00262225
0.000507504
0.00285541
0.00279591
0.00285611
0.00279948
0.000174576
0.00285479
0.00285549
0.00290353
0.00286587
0.00274088
0.00291977
0.0024107
0.00243995
0.000197997
0.00285323
0.00291238
0.00285611
0.00277428
0.00285455
0.00286665
0.00285421
0.00286082
0.00267596
0.00286679
0.00284325
0.00292
0.0028815
0.00283894
0.00289256
0.00288417
0.00254033
0.00291515
0.00229952
0.0028537
0.00289219
0.00292224
0.00273622
0.00285407
0.00285212
0.0028532
0.00292276
0.00285238
0.0028505
0.00283705
0.00285251
0.00289517
0.00260993
0.00276495
0.00285281
0.00247928
0.00285185
0.00282141
0.00270601
0.00285591
0.000190831
0.00286581
0.00291369
0.00283107
0.00285323
0.00287274
0.00285245
0.00283619
0.00290089
0.0028516
0.002853
0.00290328
0.00287452
0.0028487
0.00285954
0.00292621
0.00285151
0.00258701
0.00284838
0.00241568
0.00285309
0.002853
0.002871
0.00279795
0.00290481
0.0028508
0.00284983
0.00279775
0.00290621
0.00263972
0.0029277
0.00272103
0.00287609
0.00285547
0.00286256
0.00286262
0.00285375
0.00285003
0.00285284
0.00285008
0.00285019
0.0028492
0.00286063
0.00284951
0.00291416
0.00260979
0.00284962
0.00284808
0.00287393
0.00288219
0.00291264
0.00285683
0.00285051
0.00284912
0.00283642
0.00288484
0.00287195
0.00256201
0.00284906
0.00243566
0.00284167
0.0028754
0.00284834
0.00284823
0.0028925
0.0029188
0.00291521
0.00285042
0.00285153
0.00285043
0.00285031
0.002848
0.00286195
0.00284136
0.00285982
0.00284476
0.00287313
0.0029181
0.00289544
0.00285995
0.00286581
0.0028503
0.00281411
0.00284794
0.0028731
0.00284453
0.0028808
0.00284669
0.0028415
0.00250345
0.00285004
0.00286747
0.00272358
0.002582
0.00284696
0.00284645
0.00283964
0.00282869
0.00291598
0.00290256
0.00284693
0.00271201
0.00278711
0.00285233
0.00290799
0.00284692
0.00284784
0.00286235
0.00284413
0.00284627
0.00284794
0.00282348
0.00282955
0.0028152
0.002694
0.00284619
0.00284311
0.00246787
0.00284782
0.00263444
0.00279294
0.00291974
0.00287181
0.00274558
0.00284516
0.00290514
0.00284741
0.00284599
0.00284803
0.00288073
0.00284789
0.00284596
0.00244967
0.00288231
0.00285527
0.00284485
0.00285499
0.00285646
0.00284795
0.00277117
0.002833
0.00287577
0.00284239
0.00290826
0.00285644
0.00284513
0.00284264
0.000615712
0.00279801
0.00283497
0.00288497
0.00284776
0.00293136
0.00284984
0.00284291
0.00249462
0.0028735
0.00287159
0.00270856
0.00284313
0.00288085
0.00286562
0.00291237
0.00275652
0.00283764
0.00284457
0.00286716
0.00284927
0.00291697
0.00284378
0.0028519
0.0028662
0.0025175
0.00264996
0.00279859
0.00289158
0.00290963
0.00285021
0.00284343
0.0028737
0.00280292
0.00284901
0.0028529
0.00286509
0.00285511
0.00285729
0.00284443
0.00293017
0.0028425
0.00284179
0.00257395
0.00284426
0.00274483
0.00284497
0.00289396
0.0028455
0.00284576
0.00284209
0.0028435
0.00283979
0.00286784
0.00284258
0.00285956
0.00284498
0.00271596
0.00283935
0.00284574
0.0027806
0.00286955
0.0028515
0.00284583
0.00283926
0.00291079
0.0028431
0.00285537
0.00284968
0.00284805
0.00286136
0.00289649
0.00284577
0.00268042
0.00284211
0.00285514
0.00283901
0.00284087
0.00284108
0.00290197
0.00265399
0.00291166
0.0028659
0.00289723
0.00287262
0.00285918
0.00283415
0.00285479
0.00287581
0.00287352
0.00284924
0.00284741
0.00284144
0.00287495
0.00284564
0.00272043
0.00288142
0.00285044
0.00286127
0.00287009
0.00286465
0.002842
0.00283748
0.00286801
0.00285484
0.00288011
0.00283998
0.00284012
0.00288782
0.00283849
0.00284264
0.00251253
0.00277727
0.00284275
0.00284368
0.00284171
0.00288334
0.00283845
0.00283722
0.00283996
0.00284369
0.00273898
0.00284086
0.00286276
0.00284387
0.00283727
0.00286608
0.00271164
0.00286661
0.00285127
0.00290086
0.00285288
0.0028571
0.000432922
0.000240901
0.00260299
0.00262587
0.00288442
0.00284386
0.00285099
0.00278782
0.00283915
0.0028472
0.00284033
0.00284551
0.00284322
0.00284887
0.00283658
0.00279731
0.00284389
0.0028865
0.000412464
0.00284548
0.000534186
0.00283781
0.00285298
0.00283673
0.00288399
0.00283917
0.0028384
0.00287711
0.00269363
0.00277392
0.00286977
0.00255511
0.00266426
0.00274427
0.00284962
0.00262703
0.00284384
0.00285585
0.0028703
0.00283833
0.00284987
0.00283966
0.00283714
0.00284717
0.00284059
0.00285303
0.00284038
0.0028201
0.002842
0.00253098
0.00287261
0.00283613
0.00283925
0.00284837
0.00284172
0.00283621
0.00287148
0.00287518
0.00246182
0.00288318
0.00271773
0.00285854
0.00284113
0.00286599
0.00282768
0.00284878
0.00283163
0.00286793
0.00284202
0.00283643
0.00286762
0.00287404
0.00272333
0.0028412
0.00283183
0.00264653
0.00267637
0.00283823
0.00253996
0.00285762
0.00286127
0.00266149
0.00285132
0.00284217
0.00283548
0.00276765
0.00287355
0.00282718
0.000456459
0.00283171
0.00284725
0.002847
0.00282799
0.0028375
0.00285588
0.00283039
0.00286992
0.00286141
0.00283408
0.0028436
0.00287158
0.0028348
0.00284504
0.00284216
0.00284672
0.00285452
0.0028358
0.00283137
0.00283848
0.0028357
0.00283817
0.00286348
0.00284544
0.00285185
0.000173913
0.00287561
0.000512816
0.0028391
0.00283727
0.00211001
0.00282741
0.00283924
0.00283411
0.00284821
0.00282782
0.00287735
0.00284209
0.00284036
0.00284999
0.00285285
0.00284018
0.00282618
0.00283089
0.00276677
0.00277125
0.00284468
0.00285978
0.00284024
0.00254032
0.00282936
0.00284047
0.00278791
0.00283664
0.00284157
0.00284344
0.002846
0.00282771
0.00282633
0.0028713
0.00283031
0.00249735
0.00282991
0.00283411
0.000477487
0.0028397
0.0025236
0.00282734
0.00284682
0.00259591
0.00283679
0.00283493
0.0028405
0.00286886
0.00284193
0.00284337
0.00282964
0.0028042
0.000583757
0.00285457
0.002865
0.00286605
0.00286458
0.00284952
0.00282579
0.00285546
0.00284082
0.00273921
0.00282677
0.0025884
0.0028363
0.0028334
0.00286116
0.00281903
0.00283733
0.00285958
0.0028371
0.00247947
0.00286117
0.000209536
0.00265234
0.00284054
0.00282604
0.00283576
0.00282608
0.00277384
0.00269235
0.00285396
0.00282887
0.0027702
0.00283554
0.00284035
0.00279923
0.00286741
0.00287794
0.00283785
0.00282528
0.00284804
0.00283412
0.00281262
0.00283879
0.00259999
0.00284363
0.00281301
0.00283797
0.00284044
0.00275836
0.000322635
0.0028245
0.00277961
0.00053817
0.0028385
0.00282441
0.00283885
0.00283345
0.00285068
0.00281037
0.00283264
0.000257697
0.00281305
0.0028423
0.000300647
0.00282337
0.000231335
0.00283504
0.00284477
0.00280102
0.00276491
0.00281276
0.00288497
0.00275431
0.00283898
0.00285588
0.00282806
0.00283532
0.00277759
0.00273647
0.00281221
0.00273993
0.00283484
0.00285449
0.00246285
0.00283555
0.00283603
0.0028411
0.00228801
0.00284921
0.00283622
0.0028091
0.00281143
0.00283326
0.00283979
0.00282356
0.0026403
0.00250137
0.00280146
0.00283286
0.00283891
0.00275766
0.00281048
0.00280133
0.00271743
0.00280077
0.00284124
0.0028416
0.00283475
0.00283184
0.00281056
0.00279816
0.00284281
0.00280081
0.00266262
0.00285143
0.00289197
0.00285747
0.0026685
0.00280937
0.00281858
0.0028458
0.00283715
0.00285335
0.00282458
0.00283723
0.00283667
0.00279995
0.00282721
0.00285845
0.00285124
0.00285922
0.000266595
0.00270121
0.00269537
0.00283742
0.00279882
0.00283839
0.00289965
0.00284105
0.00267662
0.00279824
0.00280699
0.00284024
0.00257018
0.00263917
0.00279748
0.00289184
0.00281658
0.00282266
0.00280515
0.00285008
0.00288451
0.002839
0.00284383
0.00283237
0.00272317
0.00283433
0.00283391
0.00283737
0.002796
0.00285545
0.00282676
0.00280815
0.00292476
0.00287102
0.00283099
0.0028542
0.00283767
0.00275817
0.00283497
0.00279463
0.0027582
0.00243898
0.00282826
0.00266702
0.00285157
0.00282628
0.00270867
0.00274265
0.00284669
0.00276809
0.0027945
0.00275783
0.00283515
0.00283695
0.000534012
0.00283784
0.00275698
0.00282174
0.000533414
0.00283588
0.00275572
0.00268997
0.0027953
0.00275815
0.0026308
0.00283566
0.00284474
0.0028341
0.00275413
0.00283688
0.000575626
0.000517443
0.00280692
0.00283584
0.00285043
0.00292533
0.00283627
0.00280237
0.00272586
0.00275233
0.0027541
0.000664338
0.00283145
0.00232564
0.00275217
0.00283296
0.00283632
0.00283011
0.00281068
0.00283542
0.000187104
0.000200438
0.00287426
0.0028166
0.00279311
0.00285176
0.00272482
0.00282531
0.00283336
0.00278697
0.00283859
0.00284782
0.00282051
0.00232407
0.00283548
0.00272324
0.000590542
0.00260642
0.0028333
0.00283433
0.00284722
0.00272117
0.00272658
0.00282078
0.00279849
0.00269089
0.00262715
0.00271874
0.00283406
0.000232206
0.00255316
0.00274645
0.00275026
0.00061129
0.00280564
0.0027161
0.000510514
0.000425938
0.00283483
0.00266004
0.00284536
0.00283213
0.00285013
0.00285338
0.00281721
0.00283313
0.00281689
0.00283437
0.00283394
0.000250873
0.000593808
0.00279173
0.000482626
0.0027316
0.00283435
0.00254683
0.00271336
0.00285281
0.0027266
0.00272183
0.00275834
0.00288463
0.00283258
0.00283403
0.00247396
0.00290544
0.00283201
0.00283101
0.00271598
0.00283914
0.00272109
0.00283285
0.00261092
0.00052964
0.00274823
0.00283052
0.00282432
0.000605941
0.00261056
0.00282919
0.00240996
0.000493156
0.00281756
0.00264311
0.0028198
0.00260948
0.00273538
0.00282987
0.00284711
0.00283338
0.00261116
0.00283184
0.00260769
0.0028043
0.00271459
0.0025226
0.00281684
0.00260537
0.00284933
0.00279113
0.00283462
0.00223336
0.00272739
0.00281774
0.00271098
0.00282098
0.000182571
0.000192864
0.00283198
0.00279043
0.00260271
0.00280983
0.00284544
0.00279746
0.00270606
0.00232925
0.000608322
0.00279983
0.00274621
0.00283237
0.00284355
0.00280485
0.00280348
0.00280507
0.00261485
0.00282863
0.00252292
0.00285043
0.00281794
0.0028305
0.00261562
0.0025378
0.00283929
0.00259961
0.00283259
0.00252123
0.000246046
0.00283288
0.00251875
0.00280594
0.00251536
0.00281662
0.000512742
0.00268906
0.0026041
0.00071033
0.00283196
0.00281738
0.00251128
0.000246454
0.00263583
0.00270884
0.00270752
0.00260127
0.00250679
0.00252524
0.0028468
0.00282332
0.00262952
0.00271809
0.00259225
0.00245377
0.002803
0.00283485
0.0028188
0.00260785
0.00274357
0.00258258
0.00281574
0.00275828
0.00052628
0.00280589
0.000587556
0.00282823
0.00281768
0.00282914
0.00278915
0.00276274
0.00250213
0.00280515
0.00264263
0.00282732
0.00268558
0.00275807
0.002805
0.00283122
0.00259647
0.000248206
0.00282956
0.0027441
0.00261607
0.0028463
0.00276166
0.00243121
0.00280432
0.000261333
0.00253292
0.00275692
0.00293404
0.000298539
0.00270523
0.00270698
0.00280482
0.00291622
0.00257952
0.00273071
0.00282598
0.000420167
0.00272502
0.00276137
0.00272921
0.0024981
0.00283113
0.000242314
0.00272393
0.00282188
0.00250691
0.00281475
0.00284467
0.00251731
0.00283053
0.00283094
0.00276593
0.0027132
0.00276697
0.00283865
0.000268949
0.000282141
0.00277738
0.00252124
0.00261744
0.000241182
0.00282779
0.00272857
0.000521429
0.00280336
0.00259315
0.00272379
0.002848
0.000460483
0.000261995
0.00260946
0.00275574
0.000565214
0.000196979
0.000197821
0.00260051
0.00268465
0.00252042
0.00252193
0.00280174
0.00281714
0.00281775
0.00276116
0.00280458
0.00282463
0.000266154
0.00282928
0.000227239
0.0002392
0.00283441
0.00272252
0.0025779
0.000251756
0.00282231
0.00249452
0.0027879
0.000530171
0.00255365
0.000532093
0.00281366
0.000524086
0.00268297
0.00243894
0.000533987
0.00284472
0.000576089
0.00272826
0.0027422
0.000504506
0.000535566
0.00261039
0.000536687
0.00264638
0.000546416
0.000537307
0.0024952
0.00269157
0.00252087
0.00253949
0.000390177
0.000242696
0.000537327
0.00282841
0.00269279
0.0028023
0.00282717
0.00260831
0.00270523
0.00259804
0.0028125
0.00282159
0.00282638
0.000530948
0.00260243
0.0023714
0.00276077
0.0027386
0.00282891
0.00271086
0.00225121
0.000235976
0.00255245
0.000536714
0.00284743
0.00283908
0.00282326
0.00258999
0.0027278
0.00247422
0.00261148
0.00280114
0.0002561
0.00268496
0.00275417
0.00248818
0.000521845
0.00241524
0.00252157
0.00259513
0.00272116
0.0028113
0.000525738
0.00282617
0.00280054
0.000523185
0.00276021
0.00284302
0.000560458
0.00252395
0.00280701
0.00280326
0.000535162
0.00251223
0.00282111
0.00278663
0.000521444
0.00282455
0.00249276
0.0025176
0.00279992
0.000238577
0.00282553
0.00232203
0.00281659
0.00283699
0.00282166
0.00250908
0.00258454
0.00281552
0.00246172
0.00283273
0.00242893
0.00272715
0.000272928
0.000550094
0.000529071
0.000258233
0.00274048
0.000564963
0.00282087
0.00261223
0.00245394
0.000522604
0.000231004
0.00263264
0.00281
0.00282024
0.00284148
0.00255891
0.00271024
0.00275223
0.000520585
0.0027595
0.00249768
0.00280826
0.00281884
0.00252168
0.00281892
0.00270363
0.00257005
0.00245895
0.000532915
0.00279864
0.00281485
0.00252543
0.00279922
0.00238509
0.000225711
0.00259243
0.0004985
0.0002243
0.00275867
0.00022273
0.00279711
0.00275121
0.000220924
0.00272633
0.000530412
0.000219027
0.00280461
0.00257204
0.000519532
0.000217205
0.000215649
0.00278528
0.00284743
0.00279442
0.00271877
0.0025873
0.00281171
0.00250679
0.00280549
0.000264631
0.00026057
0.000214508
0.00273898
0.00261271
0.00275767
0.000522033
0.00281022
0.000549247
0.00053185
0.00279686
0.00275619
0.000525265
0.000514115
0.00263294
0.00232282
0.000213868
0.00052058
0.00272539
0.000226205
0.00246404
0.00279419
0.00275287
0.00271998
0.00278341
0.000227221
0.000226538
0.0025215
0.00272432
0.000225645
0.00280008
0.00053089
0.00278733
0.00249059
0.000261901
0.000211048
0.0002263
0.000531479
0.00263057
0.00239607
0.00281239
0.00272057
0.00272299
0.00284015
0.00249883
0.00273752
0.00283411
0.00278982
0.00022427
0.0028294
0.00259348
0.00270211
0.00048287
0.00280406
0.000214189
0.0028297
0.0027952
0.000233567
0.000491217
0.00275406
0.00277871
0.00274307
0.00261217
0.000227406
0.00261281
0.000250785
0.000520407
0.000501672
0.00271407
0.00280745
0.00274611
0.00273516
0.00281381
0.00260995
0.00051971
0.00270054
0.000248117
0.00022947
0.00231543
0.000222303
0.00261296
0.000510661
0.00276608
0.00283259
0.00258506
0.00271377
0.002613
0.00258814
0.00227266
0.00282489
0.000214639
0.000218936
0.00276319
0.00022981
0.000221268
0.00280011
0.0025174
0.00251903
0.000237961
0.00272841
0.000226429
0.00053252
0.00279485
0.00283352
0.000232319
0.000519578
0.00269858
0.00023045
0.00284153
0.0026022
0.000227734
0.00271381
0.00250356
0.00269443
0.000500002
0.00258326
0.00281659
0.000196364
0.000208988
0.00278715
0.00223553
0.00252113
0.00278794
0.00271532
0.0027923
0.00251274
0.0025199
0.00022966
0.00274164
0.00273841
0.00269408
0.0027968
0.00270609
0.00250873
0.000526602
0.000235165
0.00257748
0.00281949
0.00259378
0.00244524
0.00229357
0.000536245
0.000225282
0.00272763
0.00258121
0.000536966
0.0027756
0.00052938
0.000214795
0.00249785
0.00263859
0.00267961
0.0025818
0.000221275
0.000226073
0.00248875
0.000527083
0.000535402
0.000537262
0.00250724
0.00249659
0.00263403
0.00271202
0.00257976
0.000479648
0.00021877
0.00270582
0.00245332
0.00268891
0.000518581
0.00022955
0.00269444
0.00276075
0.00252058
0.00270219
0.00248552
0.00256671
0.00275425
0.000535917
0.00022801
0.00257409
0.000487545
0.00248717
0.000218081
0.00249627
0.000219639
0.000533536
0.000224012
0.00268377
0.000210874
0.00267876
0.000530954
0.00255504
0.00249742
0.000216452
0.000528919
0.00249599
0.00052775
0.000527633
0.000213939
0.00257082
0.000215238
0.00255667
0.000214512
0.00233146
0.00265443
0.00244475
0.000227751
0.000228622
0.000517278
0.00051581
0.000534501
0.000528828
0.000221163
0.000211401
0.00248523
0.0025378
0.00261746
0.00248375
0.0002246
0.000204006
0.000502
0.00232537
0.00250898
0.00245073
0.00248015
0.00248734
0.00260505
0.00246889
0.000216626
0.000512767
0.00243253
0.000215091
0.000504842
0.000212664
0.000493506
0.00230879
0.00238343
0.000199637
0.000406033
0.000178896
0.000173733
0.000431138
0.000200387
0.000212392
0.000527684
0.000222632
0.000527706
0.000213275
0.000214418
0.000526549
0.000211116
0.000214709
0.000528336
0.000511695
0.000223225
0.000229213
0.00021922
0.00050906
0.000225873
0.000513931
0.000198972
0.000174241
0.000174963
0.000496653
0.000202684
0.000208792
0.000520721
0.00022759
0.0022875
0.00291971
0.00242749
0.00247296
0.00245375
0.000513463
0.000204867
0.0027806
0.00279235
0.00267371
0.00017306
0.00231788
0.00285382
0.00256436
0.00231144
0.00049064
0.000462363
0.00292928
0.00273207
0.000243942
0.000177703
0.000249866
0.00285514
0.002022
0.00280426
0.00279014
0.00026266
0.00268502
0.00230559
0.00280199
0.000156359
0.00015366
0.00025486
0.000227168
0.000287841
0.000221874
0.000245801
0.000235467
0.00278317
0.000525663
0.00269184
0.000223077
0.000213673
0.000224212
0.000543921
0.00239628
0.00285446
0.000257195
0.000191809
0.000195545
0.00274764
0.00278991
0.000419009
0.00263609
0.00293155
0.00254917
0.00202586
0.00047303
0.000275492
0.000654478
0.00045509
0.000680043
0.000487081
0.000449733
0.000468067
0.000156839
0.000154336
0.00274129
0.00240558
0.00217109
0.00293371
0.000261023
0.00046116
0.000423463
0.00222391
0.0023506
0.000527349
0.002497
0.00244766
0.00237771
0.00274571
0.000223888
0.00216892
0.00256045
0.00239273
0.000561214
0.0029123
0.00242265
0.00251996
0.000188196
0.00263447
0.00290459
0.00256751
0.000377451
0.000254415
0.00275193
0.0026084
0.00289632
0.00200815
0.00222401
0.000180546
0.00268234
0.00291248
0.00214526
0.00290923
0.00275509
0.000432018
0.00282025
0.00290772
0.00262066
0.00285471
0.00270816
0.0023575
0.00239274
0.000144059
0.00284211
0.000383964
0.000186512
0.00289988
)
;

boundaryField
{
    patch0
    {
        type            nutkWallFunction;
        Cmu             0.09;
        kappa           0.41;
        E               9.8;
        value           nonuniform List<scalar> 
4010
(
0.000303268
0.000303268
0.000323525
0.000323525
0.000311475
0.000311475
0.000315345
0.000315345
0.000317661
0.000317661
0.00031409
0.00031409
0.000320052
0.000320052
0.000312621
0.000312621
0.000319738
0.000319738
0.000315783
0.000315783
0.000316425
0.000316425
0.000321228
0.000321228
0.000232494
0.000232494
0.000320974
0.000320974
0.000327241
0.000327241
0.000326829
0.000326829
0.000275298
0.000275298
0.000324655
0.000324655
0.00025307
0.00025307
0.000326367
0.000326367
0.000194701
0.000194701
0.000323541
0.000323541
0.000307264
0.000307264
0.000327936
0.000327936
0.000325001
0.000325001
0.000325446
0.000325446
0.000325743
0.000325743
0.000328582
0.000328582
0.000276866
0.000276866
0.00025771
0.00025771
0.00029699
0.00029699
0.00032536
0.00032536
0.000277212
0.000277212
0.000287242
0.000287242
0.000326958
0.000326958
0.000316403
0.000316403
0.000324799
0.000324799
0.000299445
0.000299445
0.000254245
0.000254245
0.000289044
0.000289044
0.000325518
0.000325518
0.00020724
0.00020724
0.000325519
0.000325519
0.000302726
0.000302726
0.000258132
0.000258132
0.000256266
0.000256266
0.000253421
0.000253421
0.000263802
0.000263802
0.000183906
0.000183906
0.000181114
0.000181114
0.000320288
0.000320288
0.000209544
0.000209544
0.000321395
0.000321395
0.000318625
0.000318625
0.00024715
0.00024715
0.000324727
0.000324727
0.000251717
0.000251717
0.000260577
0.000260577
0.000260037
0.000260037
0.000324958
0.000324958
0.000311172
0.000311172
0.00032684
0.00032684
0.000310192
0.000310192
0.000253247
0.000253247
0.000315219
0.000315219
0.000326488
0.000326488
0.000325716
0.000325716
0.000315738
0.000315738
0.000258857
0.000258857
0.000316639
0.000316639
0.000244749
0.000244749
0.000326339
0.000326339
0.000252414
0.000252414
0.000259046
0.000259046
0.000259193
0.000259193
0.000277979
0.000277979
0.000318387
0.000318387
0.00026133
0.00026133
0.00026298
0.00026298
0.000316431
0.000316431
0.000331577
0.000331577
0.000325694
0.000325694
0.000256445
0.000256445
0.000192013
0.000192013
0.000288785
0.000288785
0.000320627
0.000320627
0.000329941
0.000329941
0.00032765
0.00032765
0.000179338
0.000179338
0.000236347
0.000236347
0.000325959
0.000325959
0.000325364
0.000325364
0.000261003
0.000261003
0.000273643
0.000273643
0.000193826
0.000193826
0.000305527
0.000305527
0.000311637
0.000311637
0.00033117
0.00033117
0.000325189
0.000325189
0.000272591
0.000272591
0.000290452
0.000290452
0.000194164
0.000194164
0.000325502
0.000325502
0.00032531
0.00032531
0.000283958
0.000283958
0.000333102
0.000333102
0.000246527
0.000246527
0.000291566
0.000291566
0.000324611
0.000324611
0.000263829
0.000263829
0.000312226
0.000312226
0.000247535
0.000247535
0.000319054
0.000319054
0.000258264
0.000258264
0.000263116
0.000263116
0.000185682
0.000185682
0.000296067
0.000296067
0.000326388
0.000326388
0.000324863
0.000324863
0.000327106
0.000327106
0.000281755
0.000281755
8.29765e-05
8.29765e-05
0.00019291
0.00019291
0.000237369
0.000237369
0.000325785
0.000325785
0.000296615
0.000296615
0.000277019
0.000277019
0.000331057
0.000331057
0.000254613
0.000254613
8.63012e-05
8.63012e-05
0.000312772
0.000312772
0.000248642
0.000248642
3.05418e-05
3.05418e-05
0.000258534
0.000258534
0.000204729
0.000204729
0.000269173
0.000269173
0.000295957
0.000295957
0.000247603
0.000247603
0.000328692
0.000328692
0.0003217
0.0003217
0.0003269
0.0003269
0.000326277
0.000326277
2.56932e-05
2.56932e-05
2.56932e-05
2.53934e-05
2.53934e-05
2.53934e-05
0.000286902
0.000286902
0.000243236
0.000243236
0.000292436
0.000292436
0.000255257
0.000255257
0.000324388
0.000324388
0.000324437
0.000324437
0.000251267
0.000251267
4.43654e-05
4.43654e-05
4.43654e-05
0.00025526
0.00025526
0.000249031
0.000249031
0.000299958
0.000299958
0.000299348
0.000299348
8.25465e-05
8.25465e-05
0.000301401
0.000301401
0.00031165
0.00031165
3.44132e-05
3.44132e-05
0.000258811
0.000258811
0.000278355
0.000278355
0.000251663
0.000251663
8.44112e-05
8.44112e-05
0.000248394
0.000248394
0.00028475
0.00028475
0.000299673
0.000299673
6.35223e-05
6.35223e-05
0.000328151
0.000328151
0.000242413
0.000242413
0.000284306
0.000284306
0.000296826
0.000296826
0.000333208
0.000333208
0.000325091
0.000325091
0.000316769
0.000316769
0.000268069
0.000268069
0.000257754
0.000257754
5.99764e-05
5.99764e-05
0.00032012
0.00032012
0.000257048
0.000257048
0.000297593
0.000297593
0.000326366
0.000326366
0.000261686
0.000261686
0.000305537
0.000305537
0.00018236
0.00018236
0.000256575
0.000256575
0.000256151
0.000256151
0.000312594
0.000312594
0.000331276
0.000331276
0.000259918
0.000259918
0.000280597
0.000280597
0.000301998
0.000301998
0.000322787
0.000322787
0.000276583
0.000276583
0.000304505
0.000304505
4.51381e-05
4.51381e-05
4.51381e-05
0.000321093
0.000321093
0.000266787
0.000266787
0.000279527
0.000279527
0.000215358
0.000215358
5.86214e-05
5.86214e-05
0.000260925
0.000260925
0.000275657
0.000275657
0.000303209
0.000303209
0.000302444
0.000302444
0.000302351
0.000302351
0.00029174
0.00029174
0.000202587
0.000202587
0.000241155
0.000241155
1.79624e-05
1.79624e-05
1.79624e-05
8.58987e-05
8.58987e-05
0.000243029
0.000243029
0.000328766
0.000328766
0.000311224
0.000311224
0.000316516
0.000316516
0.000316453
0.000316453
0.000324115
0.000324115
0.000286908
0.000286908
0.000296874
0.000296874
0.000331158
0.000331158
0.000296915
0.000296915
0.000256305
0.000256305
0.000287441
0.000287441
0.000328518
0.000328518
0.000308726
0.000308726
0.000323203
0.000323203
0.000329009
0.000329009
0.000332985
0.000332985
0.000312523
0.000312523
0.000218925
0.000218925
4.51481e-05
4.51481e-05
0.000325559
0.000325559
0.000285912
0.000285912
5.32042e-05
5.32042e-05
0.000324794
0.000324794
2.09298e-05
2.09298e-05
2.09298e-05
0.00032909
0.00032909
0.000304335
0.000304335
0.000287528
0.000287528
4.59053e-05
4.59053e-05
4.59053e-05
0.000325953
0.000325953
0.000288189
0.000288189
0.000329442
0.000329442
0.000204029
0.000204029
4.66067e-05
4.66067e-05
0.00019617
0.00019617
0.000312688
0.000312688
0.000313865
0.000313865
0.000265916
0.000265916
0.000333182
0.000333182
0.000256365
0.000256365
7.58764e-05
7.58764e-05
0.000317196
0.000317196
0.000246139
0.000246139
0.000331944
0.000331944
0.000328327
0.000328327
0.00032517
0.00032517
0.000297053
0.000297053
0.000295781
0.000295781
0.000309334
0.000309334
0.000306792
0.000306792
0.000295252
0.000295252
0.00032482
0.00032482
0.000315539
0.000315539
0.000325299
0.000325299
0.000257618
0.000257618
0.000235236
0.000235236
0.000332987
0.000332987
0.000275324
0.000275324
5.66642e-05
5.66642e-05
0.000227921
0.000227921
0.000253542
0.000253542
0.0002498
0.0002498
0.000313892
0.000313892
0.000325294
0.000325294
0.000331593
0.000331593
0.000316852
0.000316852
0.000325614
0.000325614
0.000255082
0.000255082
0.000231516
0.000231516
6.43296e-05
6.43296e-05
3.43623e-05
3.43623e-05
3.43623e-05
0.000325901
0.000325901
0.00031933
0.00031933
0.000249799
0.000249799
0.000260174
0.000260174
0.000329689
0.000329689
7.6491e-05
7.6491e-05
0.00031679
0.00031679
0.000297369
0.000297369
0.000298275
0.000298275
0.000253212
0.000253212
0.000326078
0.000326078
0.000328676
0.000328676
0.000182894
0.000182894
0.000250467
0.000250467
0.000328005
0.000328005
0.000209276
0.000209276
0.000332362
0.000332362
0.000328347
0.000328347
4.6465e-05
4.6465e-05
4.6465e-05
0.000278824
0.000278824
0.000329562
0.000329562
0.00032393
0.00032393
0.000321105
0.000321105
0.000322998
0.000322998
0.000265176
0.000265176
0.000329891
0.000329891
0.000305699
0.000305699
0.000259431
0.000259431
0.000200286
0.000200286
0.000324243
0.000324243
0.000322365
0.000322365
0.000324855
0.000324855
0.000331393
0.000331393
0.000286302
0.000286302
0.000307602
0.000307602
0.000320203
0.000320203
0.000305906
0.000305906
0.00031356
0.00031356
0.000255069
0.000255069
0.00025361
0.00025361
0.000282911
0.000282911
0.000255038
0.000255038
0.000325695
0.000325695
0.000332341
0.000332341
0.000308009