/*--------------------------------*- C++ -*----------------------------------*\
  =========                 |
  \\      /  F ield         | OpenFOAM: The Open Source CFD Toolbox
   \\    /   O peration     | Website:  https://openfoam.org
    \\  /    A nd           | Version:  8
     \\/     M anipulation  |
\*---------------------------------------------------------------------------*/
FoamFile
{
    version     2.0;
    format      ascii;
    class       volScalarField;
    location    "0.2";
    object      p;
}
// * * * * * * * * * * * * * * * * * * * * * * * * * * * * * * * * * * * * * //

dimensions      [1 -1 -2 0 0 0 0];

internalField   nonuniform List<scalar> 
1924
(
0
1.39081
2.59036
2.97598
0.940708
3.10884
3.42895
3.68552
3.94315
2.44268
4.11321
4.28733
4.71873
4.49837
4.35983
4.29962
5.50064
4.53765
19.9742
4.58465
31.7766
5.67367
5.39283
4.59085
5.64754
5.2731
5.27776
1.61745
1.20159
348.234
5.18784
5.56935
-4.80646
5.184
2.35003
5.49407
5.64251
1.69112
400.506
5.12139
5.50924
-15.1753
5.40798
5.62823
117.811
3.24574
-151.323
-0.00572158
10.2775
-96.8275
6.08343
5.2952
5.70215
6.04809
2.9764
2.65328
69.1315
-1.9477
-14.0976
4.59624
5.65278
4.38772
5.76777
641.026
6.46095
2.6913
4.38635
5.22656
3.30381
5.65425
0.566952
4.3135
552.874
190.983
85.6335
-0.444552
3.90547
17.575
8.80275
5.75641
4.60362
5.14538
441.702
10.6536
-12.4156
5.40962
9.815
4.48172
-394.73
-0.269308
4.52821
5.01944
4.75383
2.83753
-9.52506
6.61406
3.70796
4.5198
4.7255
0.445974
2.29821
-55.5384
4.77706
4.91886
3.07791
5.13661
3.63566
2.69018
4.54454
3.61934
3.7345
3.01601
1.81172
427.054
8.65704
13.236
2.49741
4.16188
5.73509
4.44511
-19.4819
1019
-15.367
-1.32584
4.30891
4.01551
-1.53297
5.47593
3.15735
1527.73
4.2367
3.46037
-1.61479
357.618
-16.1918
3.39366
1.87739
2.78998
4.59254
2.05576
3.3959
4.38778
-963.964
1.84485
2.93119
1514.99
3.24785
0.313602
4.40108
5.80393
624.274
1173.55
-4.48384
3.58922
3.37768
4.33481
1430.54
2.02829
4.17646
450.344
360.209
-1.40853
3.71914
981.013
791.455
4.06105
4.84566
1585.25
4.97269
4.18213
0.325059
3.77803
5.05458
4.80864
3.13829
2.72233
437.392
-0.151525
5.65561
4.64897
5.43951
4.08677
24.6256
5.03217
39.8251
-16.122
-4.7213
5.52681
4.7812
194.75
4.13188
4.00785
4.32721
4.80767
5.16855
1080.88
5.45436
4.41021
4.76314
3.16402
-8.77842
10.1451
4.32217
4.4088
0.868643
5.50463
5.32196
-8.68343
-0.752101
0.252445
790.688
4.2456
4.59879
5.28915
5.50142
5.42563
4.34042
4.18079
5.17168
5.1822
4.69032
364.574
4.98192
4.57211
4.491
5.40917
4.2718
4.80391
5.28149
6.14793
-3.86637
4.58854
5.10927
-0.0155132
5.30644
677.744
4.52423
5.25958
4.96533
899.749
3.95745
5.59067
4.53896
7.20144
-66.3174
0.615943
4.7183
3.35795
10.4961
4.90483
-34.5296
966.836
5.29988
4.74248
4.74235
4.4808
5.1809
5.86897
4.69554
5.12079
5.14876
5.20132
4.74845
5.49639
5.50394
70.7731
7.46916
5.15373
1.01037
-88.7169
5.47017
650.186
-2.24767
5.80545
4.51342
4.54533
4.73099
5.25548
4.67819
5.13244
-35.9029
1300.61
4.59696
5.22714
-5.61404
121.391
4.35859
1164.33
5.10725
5.73678
5.23873
315.072
5.14023
4.44625
-1.00966
838.904
4.44036
0.47471
5.20349
4.40679
1401.24
5.08154
4.48724
4.19747
4.80535
5.61621
5.82131
4.51024
5.90248
139.245
5.65476
5.90361
5.20157
5.64184
4.54394
5.91401
5.17955
4.98172
5.30849
5.34128
163.334
5.66581
5.19622
773.837
5.38811
4.6768
5.67311
5.7678
3.38526
4.38719
5.81522
4.30927
5.6251
4.7551
6.0182
5.08642
4.51093
5.26038
5.09921
5.43855
4.7404
576.613
5.56909
-4.13457
4.3269
4.16683
-0.439769
4.17582
5.97771
5.53341
5.31976
-362.18
815.388
4.38404
2.52298
4.90527
864.174
4.93356
5.82391
6.7529
4.96844
4.30253
4.42302
4.38228
5.36262
5.37572
5.56997
5.45269
5.05818
5.2348
4.47542
5.36739
5.72787
3.8963
4.95453
0.296951
4.25484
4.2772
5.43625
4.10671
4.09702
4.99361
5.64587
5.34383
5.71122
4.50474
9.02603
4.31108
5.03098
5.36147
666.434
5.61075
5.5585
4.17957
5.13002
-3.33005
5.13023
5.46066
4.43892
4.09521
1446.03
5.2567
3.27464
1.61087
1631.84
4.38577
4.52113
4.11692
5.81056
5.18533
4.91111
5.62225
4.83027
5.19888
4.94911
4.1376
4.59965
4.23909
5.52436
3.60913
4.28669
5.60336
4.52586
-2.35086
5.27876
4.37276
4.56381
392.789
5.52153
4.74077
4.31526
4.64167
4.61989
5.68639
5.06956
4.81248
4.41512
4.88965
5.15322
5.31816
5.88559
4.94196
5.33485
960.605
3.9872
193.476
4.79072
5.47609
5.4916
4.18278
4.15304
5.53817
5.2486
4.4793
4.99713
5.37313
4.46826
4.14008
5.72147
3.97385
4.71652
5.39411
5.52969
5.76185
6.497
4.11932
3.99262
4.89772
5.02789
73.3931
5.10457
5.59432
94.7816
4.50437
5.37075
4.79369
609.943
4.74746
3.92256
3.96344
4.71595
4.96406
4.32126
3.92738
5.42132
5.15133
4.74282
3.77135
4.55232
4.47087
6.1794
4.6162
5.62268
3.6832
4.23073
4.52488
3.91367
4.18967
4.80347
829.364
4.2798
4.08384
5.77216
5.23945
5.89339
3.99863
4.1281
4.91608
5.48472
4.36628
4.98363
4.57557
4.12444
5.21555
3.99734
3.9325
5.27674
5.30516
4.95651
3.90502
5.69404
4.07538
4.60552
4.41069
5.11219
5.17772
10.8464
5.84393
4.96884
4.78207
5.80623
4.66921
5.51241
5.65166
4.6221
3.804
4.90469
5.56219
5.5238
5.06852
5.35239
776.564
6.02643
5.08894
4.45889
4.54435
327.042
762.46
3.80019
4.51663
4.60582
4.1884
3.89402
5.58133
4.72395
5.67653
5.81504
6.26249
954.264
539.111
5.11351
5.738
0.22218
4.12506
5.8291
5.35307
4.66431
3.9344
180.254
5.38547
4.49653
4.41854
4.78007
3.99876
5.28531
3.80748
5.79189
5.82686
4.2262
5.73194
5.20036
3.78947
4.86666
3.93477
6.5797
6.0004
4.1223
6.09651
4.51989
635.437
4.88734
5.61726
406.131
6.52673
6.25554
4.27707
3.74316
4.75695
3.73934
5.85986
6.79357
4.06878
4.72707
823.628
5.45801
4.56318
5.10775
4.80858
5.21958
6.16607
4.93784
3.96149
5.79843
4.48892
5.23978
3.73584
5.06617
4.63263
6.758
837.98
4.35602
4.56278
4.00908
5.03499
4.7897
18.4445
6.01122
3.72849
4.98077
5.82787
3.78188
4.52938
4.70353
5.93228
5.4936
6.82995
4.58819
1010.96
4.40874
4.40147
4.12288
3.99801
5.32054
4.70122
3.93719
3.95739
5.08002
3.71106
4.34581
5.64943
5.70183
3.93465
2.09922
4.95564
5.98758
3.80866
5.82857
4.87661
4.75548
5.83004
5.58458
6.19916
5.39125
4.43142
3.74482
752.031
4.86001
3.72237
5.57354
5.35854
5.16905
4.63973
5.64191
4.4658
3.89923
4.47327
4.77994
3.77277
6.41421
5.95891
4.12021
4.06536
3.61255
3.61531
4.90958
4.72531
3.61789
1380.85
4.21957
6.17316
575.409
4.59728
4.17032
4.51202
5.74782
3.95241
5.95209
5.14916
5.21102
5.00651
4.51433
6.00526
4.39511
4.7655
6.64064
4.33484
3.99527
4.56885
4.27108
5.43974
5.61566
6.38424
3.93277
1454.12
4.6791
4.91464
3.80789
5.88287
3.8955
-34.4882
5.20881
3.60376
4.6972
6.13157
3.71418
-1.33034
0.203823
6.85628
4.81689
4.32912
3.74471
5.93064
1038.31
5.05247
3.55111
4.73215
3.55388
4.21047
3.5494
5.96589
6.60259
3.61868
4.55957
7.05307
4.26544
968.932
5.29675
6.11024
5.48076
4.37343
4.83542
3.80206
4.69825
1045.08
969.102
4.90203
403.469
6.8061
1626.67
3.54244
115.865
3.55505
3.58473
4.40079
4.88501
6.06922
4.49425
5.14414
6.31164
4.32125
3.59816
4.37994
1011.36
3.80552
4.66131
4.06128
5.33888
4.54989
6.28186
3.92875
6.11584
4.90976
4.60344
0.998031
4.65191
7.11748
3.70702
4.20185
3.89222
837.669
6.04551
5.84578
3.95004
3.74299
4.98279
4.44275
4.11663
5.67039
4.13952
5.70683
5.66531
4.91179
4.65839
613.661
4.70211
3.77611
970.748
3.53778
3.61798
5.18859
4.93623
4.20109
959.734
6.96802
5.5685
6.22619
3.42222
6.50795
4.71096
5.69151
6.0342
4.78658
3.77555
6.47213
3.42807
4.25022
5.03014
3.42611
3.55487
6.19812
3.59137
4.52526
5.42675
4.30705
4.81409
4.36459
4.98092
3.35886
4.28865
1166.31
4.34931
6.98633
4.18975
4.47714
1342.59
5.89988
4.12982
4.86423
3.41738
5.75536
4.59436
3.42871
6.39731
4.76066
3.5317
3.80144
5.99
5.27914
6.71045
4.98944
3.36185
3.71416
3.73964
187.38
6.18932
3.61592
6.6691
4.5321
6.36239
6.13942
4.33012
5.61438
6.35583
4.53416
5.12477
334.854
4.57524
6.28845
-1.39146
4.00643
827.811
5.47165
3.35647
35.7387
3.73894
4.63987
3.55335
4.45196
3.36522
3.36435
4.96373
4.37511
-52.6618
3.52505
3.8897
3.94764
4.05061
3.41307
6.14468
3.58559
6.29458
4.48779
5.3245
6.91218
4.29303
4.69249
3.77286
6.58005
4.11839
3.71311
4.17733
543.486
4.10372
5.82503
6.8631
3.4281
6.54037
4.34986
5.17156
4.88641
4.932
3.52625
4.79631
1549.16
4.16624
6.2587
4.42212
4.72954
4.51802
3.99902
5.01247
3.35207
4.46149
5.85684
3.61254
5.02752
3.23355
5.71017
3.93717
3.36501
4.73216
3.42191
4.20878
5.71272
7.02429
3.73514
4.84724
3.55053
6.46011
3.408
6.05436
4.51616
872.172
5.565
3.23703
-13.4402
6.3047
1.12027
6.42057
3.23077
1127
4.24186
5.41766
4.64514
6.7692
3.42633
3.59018
4.62406
4.10697
6.72549
4.54428
5.26639
4.90458
4.16524
3.52172
750.671
3.60669
3.98892
3.23842
1.29573
3.34745
3.92895
6.21278
5.11019
4.27995
3.23882
4.67707
1189.78
1045.13
5.76046
5.66305
3.36368
4.28404
4.94874
5.61339
4.77936
5.91084
3.17348
3.17093
6.33875
4.33643
6.63568
6.00664
3.16856
5.46528
4.96838
3.40362
4.49442
3.88422
1261.72
4.78216
6.59254
3.22664
3.6082
3.9403
4.0276
3.54673
3.80559
5.31423
4.44777
3.71068
3.40047
3.77036
93.2136
4.60183
4.36104
3.42349
5.159
3.23822
168.335
643.256
1124.92
6.1647
4.0738
3.17463
6.96256
6.91305
4.999
4.52981
1026.06
4.50261
6.37666
3.34322
4.51404
3.1754
3.16536
4.09615
4.11473
3.91961
3.97899
3.36128
4.83416
3.59095
6.50559
4.61118
4.62312
4.72517
4.15403
3.52869
3.17513
5.71237
3.79976
6.32667
5.56258
980.318
6.45928
4.42434
3.40016
4.26832
4.14887
6.81785
3.22281
6.77175
4.66483
5.4114
3.73775
3.23667
7.07299
3.04242
5.25743
4.32475
131.714
3.41982
5.0997
221.478
6.55182
5.86368
4.19887
3.54221
3.16162
3.54288
4.93775
3.04479
25.8145
332.687
4.43641
3.35805
3.33956
4.61972
3.17392
6.67825
5.61264
4.77154
6.06801
4.97312
3.91069
6.86395
6.22885
3.7916
3.04764
3.96969
6.63172
3.04843
7.04941
7.04793
4.7145
6.482
4.49164
3.70743
5.46094
4.0864
3.73138
6.49667
3.03937
3.76559
3.87226
2.1455
3.23422
5.30717
4.85991
4.25619
2.9801
3.04879
3.2194
5.15021
5.76374
4.14415
3.92317
3.98786
6.9554
4.98942
2.9774
7.05176
7.00616
6.39403
4.60134
4.83173
4.25853
4.82458
538.614
553.766
3.17184
4.02154
3.15821
2.98202
3.33697
3.58821
6.53541
3.04822
1146.36
3.41559
3.60773
7.07599
4.73344
4.31515
531.512
6.85716
3.3542
4.05403
4.65579
3.52752
5.91754
6.17806
6.80858
4.60657
2.98404
3.23107
1263.76
125.445
2.98485
2.98539
6.342
3.03629
6.01792
3.41322
5.56091
7.11666
4.42759
3.724
3.90256
4.56806
5.40728
3.78389
1185.62
812.539
2.85363
1763.75
3.9614
5.25151
6.56593
2.98509
3.2166
3.16904
5.71358
3.04683
5.0927
4.07808
1665.7
4.09763
2.85556
4.93032
3.3397
6.71036
2.97451
-2.10821
1173.02
2.85115
4.48339
3.70141
0.560875
-1.29259
3.60337
4.13592
4.76423
1187.65
3.1552
6.66032
6.51187
6.87377
4.38314
3.75599
4.25083
3.54144
3.58418
2.79103
2.79271
2.78876
5.86727
2.98399
5.61272
3.40426
2.85781
3.04469
6.9902
7.04256
3.03351
4.59451
3.22744
5.45889
1020.84
3.35001
5.3034
2.79418
5.14526
2.85857
1005.62
3.85138
1401.78
1824.88
3.16571
2.85827
4.98383
7.12236
1469.12
4.30784
6.74524
6.23885
4.81882
5.7661
3.52474
3.71724
3.89342
6.88824
6.40565
3.93414
3.89557
2.97168
3.77697
6.0763
6.83724
6.25013
2.85802
2.6659
7.15411
2.79473
4.2
3.59698
2.84864
3.04193
3.95444
2.6678
4.65022
2.7952
1763.48
2.98214
6.68778
2.66422
2.78636
3.34922
4.4214
198.878
3.53639
4.07148
1805.78
3.21441
2.66783
3.9516
2.79484
40.5
5.92097
2.66215
4.90218
4.97288
4.67551
4.12961
3.57768
35.9187
6.5777
2.60407
2.97968
6.91976
2.60135
2.66817
2.60424
4.47822
3.22356
401.977
2.60297
3.52061
6.35148
2.85677
3.15291
6.18629
3.16208
3.41286
6.67791
3.69182
6.73356
3.03117
4.9116
4.89181
1538.65
6.02493
2.47716
7.16682
3.03876
2.6048
1123.08
2.79383
4.24537
2.59944
3.40372
6.54381
4.78299
2.47683
2.65997
4.0503
552.405
551.951
7.018
1669.84
2.41286
7.07207
3.71139
2.84625
3.59121
2.6676
2.78395
2.97674
502.547
3.22106
726.854
612.382
2.96915
2.59734
1805.32
4.63608
3.53076
6.52168
3.77112
5.71683
6.75478
5.56308
2.85486
7.18529
1603.59
1481.01
5.40839
3.21462
1966.63
2.60437
3.88998
1184.1
5.25167
2.47749
5.09209
3.74087
1089.88
4.92916
4.30318
290.917
2.41434
2.41408
1704.37
4.44997
4.7627
3.34746
6.91213
2.79217
3.40921
2.47584
3.94906
2.47246
2.85241
5.54595
3.03535
5.87125
2.47427
1407.07
2.66644
3.51453
3.15835
6.85861
-1.51231
7.20579
1868.79
4.59279
3.34158
3.40026
2.97353
4.06678
2.6034
6.69683
2.47687
2.78995
4.26272
3.56821
2.65784
6.93736
2.28694
3.82842
2.41396
2.47046
2.59519
2.84957
6.02859
3.15682
3.52587
6.18936
2.6647
3.15122
3.93686
2.4126
3.39553
2.78174
4.41958
2.40969
3.34335
3.58631
6.35414
3.03193
4.12549
2.41142
2.7873
1064.47
3.21974
3.85097
3.4044
3.02922
2.97022
2.40773
1677.76
2.84421
1821.76
2.96716
6.87678
2.60187
1987.84
2.29218
2.28859
4.10081
3.70669
2019
3.02934
2.47579
1889.85
7.21051
7.23866
4.73836
2.84652
3.3367
3.33985
1611.64
3.38959
3.33259
6.52366
2.66247
7.09527
2.84344
3.15476
2.41305
2.96701
3.76657
7.0394
3.68234
4.24345
2.78441
3.21671
3.50812
3.33926
1695.17
5.76814
2.46843
1404.45
5.61426
2.65989
5.45987
2.78142
2.65598
5.30383
2.59983
2.28812
5.14519
2.84048
3.32776
6.69804
4.98337
4.81808
3.4003
5.63034
2.77849
2.59318
3.88598
2.96506
2.40567
1220.61
683.135
146.821
4.64928
3.52193
2.47418
2.65711
2.28347
3.02765
2040.37
2.28681
3.15173
2.65428
2.28554
6.87735
6.92873
1622.13
4.47713
2.28128
2.59741
7.26563
3.38468
2.83814
2.65155
3.20763
3.21326
5.9232
6.08152
2.41161
2.59474
6.24366
2.77996
4.06487
2.77579
3.94549
2061.81
2.22331
2.22522
2.28715
6.8711
3.55983
2.84248
2.58927
2.59199
3.15278
3.2049
3.33596
3.02777
2.96322
6.4101
3.02744
3.14535
3.58247
7.1237
3.21156
4.3019
2.96565
1292.91
1256.61
1618.67
3.14858
3.02539
2.64907
2.4645
2.22513
2.46713
2099.61
7.2301
3.80345
2.58674
2.84123
2.65443
3.14896
3.15146
2.46194
2.27896
3.39708
3.89005
3.83957
3.72325
6.58128
2.47211
3.32587
2.7739
3.21498
3.7033
2.59153
2.46972
2.46663
1902.47
2.96457
4.12418
6.75735
2.83646
2.21916
7.28695
2.8403
2.39968
2.40226
2.22613
2.96109
2.22431
2.28557
2.77863
3.15326
2.22285
3.14614
3.21056
2.2214
3.21636
2.45959
1476.01
2.6471
2.40368
2.58455
3.50226
3.51909
2.96507
7.0613
6.93876
2.77778
1833.75
2.40969
2.83989
3.02388
3.02636
2.39726
2.40488
2.2169
2.96346
2.6534
3.0231
2.96498
2.77237
3.02285
2047.63
2115.32
2.45755
3.02778
2.9615
7.11257
1.59995
2.27573
2.22294
2.6528
2.46517
2.27309
2.77726
3.88412
3.94413
2.39512
2.58292
2.83483
3.33359
3.38304
3.20561
3.7635
2.96436
2.27844
2.27065
2.45592
7.05397
2.64573
2.65253
3.14695
1830.55
1688.6
2.59035
2.39332
2.83875
2.27667
2.21457
2.58972
2.8397
2.4074
2.77717
3.39483
2.77625
2.77744
2.26848
3.02527
2.95939
3.67331
3.57981
2.21076
2.8389
2.21345
2.2835
2.22104
2.65248
3.55335
2.58959
2.78044
2.77104
2.40193
2.20823
2.26663
2.58198
3.51741
3.33187
3.39343
2.46427
7.30283
2.46399
2.20596
2.39202
2.58978
2.65307
2.84266
2.21019
2.27454
2.27273
2.28108
2.59393
2.21615
2.20403
2.58951
2.46432
2.65219
3.20861
2.65758
2.20251
2.26525
2.45509
2.46509
2.46599
3.02139
2.40063
2.59013
2.83332
2.46996
2.40535
2.64455
3.69364
2.27184
2.20763
2.27323
2.466
2.40131
1897.67
2037.31
2.21179
2099.99
2.275
2110.82
3.01991
2.95773
2.21873
3.14525
3.20715
3.5785
2.76945
2.83185
3.76212
3.70152
2.27078
2.20658
2.21229
2.20677
2.27093
2.20716
2.27142
2.20914
2.20102
2.26433
2.39106
2.45378
2.6431
2.58055
2.20842
2.40219
10.5517
2.40034
2.3999
2.39981
7.24418
7.3132
1428
90.9785
1274.22
7.31575
7.12279
5.65105
6.46485
7.06138
7.25195
1418.32
4.45507
1316.36
1165.03
7.25233
1243.62
5.65442
742.752
1335.51
5.61684
1080.67
4.45415
11.4713
1363.6
7.17017
6.9963
701.893
662.652
-776.467
567.241
373.202
770.435
1177.26
1242.47
1370.56
1614.76
668.167
1143.19
1245.95
8.59923
5.68587
1845.71
2.96657
2.01398
1442.23
1448.6
677.084
210.775
5.33137
535.024
1738.81
1809.85
1704.79
946.969
689.498
625.711
606.445
557.005
783.102
2119.85
1974.14
1255.53
5.47584
496.104
4.91365
99.2579
1247.99
1.30301
771.782
-22.5595
1491.78
5.04962
998.781
10.8641
5.37285
621.389
22.0593
844.173
13.6818
1578.07
4.53911
5.93992
5.01427
7.20978
822.844
4.54
1116.56
-5.31325
1670.39
4.87246
4.90232
4.57501
-146.339
74.5449
2155.93
5.18356
4.52937
106.658
4.51811
5.32645
-127.671
5.46615
4.51791
288.149
5.62104
225.929
424.041
516.111
-1344.73
5.57625
1895.02
1777.07
4.55952
)
;

boundaryField
{
    patch0
    {
        type            calculated;
        value           nonuniform List<scalar> 
4010
(
4.44089e-16
4.44089e-16
1.39081
1.39081
2.59036
2.59036
2.97598
2.97598
0.940708
0.940708
3.10884
3.10884
3.42895
3.42895
3.68552
3.68552
3.94315
3.94315
2.44268
2.44268
4.11321
4.11321
4.28733
4.28733
4.71873
4.71873
4.49837
4.49837
4.35983
4.35983
4.29962
4.29962
5.50064
5.50064
4.53765
4.53765
19.9742
19.9742
4.58465
4.58465
31.7766
31.7766
5.67367
5.67367
5.39283
5.39283
4.59085
4.59085
5.64754
5.64754
5.2731
5.2731
5.27776
5.27776
1.61745
1.61745
1.20159
1.20159
348.234
348.234
5.18784
5.18784
5.56935
5.56935
-4.80646
-4.80646
5.184
5.184
2.35003
2.35003
5.49407
5.49407
5.64251
5.64251
1.69112
1.69112
400.506
400.506
5.12139
5.12139
5.50924
5.50924
-15.1753
-15.1753
5.40798
5.40798
5.62823
5.62823
117.811
117.811
3.24574
3.24574
-151.323
-151.323
-0.00572158
-0.00572158
10.2775
10.2775
-96.8275
-96.8275
6.08343
6.08343
5.2952
5.2952
5.70215
5.70215
6.04809
6.04809
2.9764
2.9764
2.65328
2.65328
69.1315
69.1315
-1.9477
-1.9477
-14.0976
-14.0976
4.59624
4.59624
5.65278
5.65278
4.38772
4.38772
5.76777
5.76777
641.026
641.026
6.46095
6.46095
2.6913
2.6913
4.38635
4.38635
5.22656
5.22656
3.30381
3.30381
5.65425
5.65425
0.566952
0.566952
4.3135
4.3135
552.874
552.874
190.983
190.983
85.6335
85.6335
-0.444552
-0.444552
3.90547
3.90547
17.575
17.575
8.80275
8.80275
5.75641
5.75641
4.60362
4.60362
5.14538
5.14538
441.702
441.702
10.6536
10.6536
-12.4156
-12.4156
5.40962
5.40962
9.815
9.815
4.48172
4.48172
-394.73
-394.73
-0.269308
-0.269308
4.52821
4.52821
5.01944
5.01944
4.75383
4.75383
2.83753
2.83753
-9.52506
-9.52506
6.61406
6.61406
3.70796
3.70796
4.5198
4.5198
4.7255
4.7255
0.445974
0.445974
2.29821
2.29821
-55.5384
-55.5384
4.77706
4.77706
4.91886
4.91886
3.07791
3.07791
5.13661
5.13661
3.63566
3.63566
2.69018
2.69018
4.54454
4.54454
3.61934
3.61934
3.7345
3.7345
3.01601
3.01601
1.81172
1.81172
427.054
427.054
8.65704
8.65704
13.236
13.236
2.49741
2.49741
4.16188
4.16188
5.73509
5.73509
4.44511
4.44511
-19.4819
-19.4819
1019
1019
-15.367
-15.367
-1.32584
-1.32584
4.30891
4.30891
4.01551
4.01551
-1.53297
-1.53297
5.47593
5.47593
3.15735
3.15735
1527.73
1527.73
4.2367
4.2367
3.46037
3.46037
-1.61479
-1.61479
357.618
357.618
-16.1918
-16.1918
3.39366
3.39366
1.87739
1.87739
2.78998
2.78998
4.59254
4.59254
2.05576
2.05576
3.3959
3.3959
4.38778
4.38778
-963.964
-963.964
-933.235
1.84485
1.84485
2.57422
2.93119
2.93119
1514.99
1514.99
3.24785
3.24785
0.313602
0.313602
4.40108
4.40108
5.80393
5.80393
624.274
624.274
1173.55
1173.55
1267.29
-4.48384
-4.48384
3.58922
3.58922
3.37768
3.37768
4.33481
4.33481
1430.54
1430.54
2.02829
2.02829
4.17646
4.17646
450.344
450.344
360.209
360.209
-1.40853
-1.40853
3.71914
3.71914
981.013
981.013
791.455
791.455
4.06105
4.06105
4.84566
4.84566
1585.25
1585.25
4.97269
4.97269
4.18213
4.18213
0.325059
0.325059
3.77803
3.77803
5.05458
5.05458
4.80864
4.80864
3.13829
3.13829
2.72233
2.72233
437.392
437.392
-0.151525
-0.151525
5.65561
5.65561
4.64897
4.64897
5.43951
5.43951
4.08677
4.08677
24.6256
24.6256
5.03217
5.03217
39.8251
39.8251
-16.122
-16.122
-4.7213
-4.7213
5.52681
5.52681
4.7812
4.7812
194.75
194.75
4.13188
4.13188
4.00785
4.00785
4.32721
4.32721
4.80767
4.80767
5.16855
5.16855
1080.88
1080.88
1174.62
5.45436
5.45436
4.41021
4.41021
4.76314
4.76314
3.16402
3.16402
-8.77842
-8.77842
10.1451
10.1451
4.32217
4.32217
4.4088
4.4088
0.868643
0.868643
5.50463
5.50463
5.32196
5.32196
-8.68343
-8.68343
-0.752101
-0.752101
0.252445
0.252445
0.28096
790.688
790.688
4.2456
4.2456
4.59879
4.59879
5.28915
5.28915
5.50142
5.50142
5.42563
5.42563
4.34042
4.34042
4.18079
4.18079
5.17168
5.17168
5.1822
5.1822
4.69032
4.69032
364.574
364.574
4.98192
4.98192
4.57211
4.57211
4.491
4.491
5.40917
5.40917
4.2718
4.2718
4.80391
4.80391
5.28149
5.28149
6.14793
6.14793
-3.86637
-3.86637
4.58854
4.58854
5.10927
5.10927
-0.0155132
-0.0155132
5.30644
5.30644
677.744
677.744
706.083
4.52423
4.52423
5.25958
5.25958
4.96533
4.96533
899.749
899.749
993.489
3.95745
3.95745
5.59067
5.59067
4.53896
4.53896
7.20144
7.20144
-66.3174
-66.3174
0.615943
0.615943
4.7183
4.7183
3.35795
3.35795
10.4961
10.4961
4.90483
4.90483
-34.5296
-34.5296
966.836
966.836
5.29988
5.29988
4.74248
4.74248
4.74235
4.74235
4.4808
4.4808
5.1809
5.1809
5.86897
5.86897
4.69554
4.69554
5.12079
5.12079
5.14876
5.14876
5.20132
5.20132
4.74845
4.74845
5.49639
5.49639
5.50394
5.50394
70.7731
70.7731
7.46916
7.46916
5.15373
5.15373
1.01037
1.01037
-88.7169
-88.7169
5.47017
5.47017
650.186
650.186
-2.24767
-2.24767
5.80545
5.80545
4.51342
4.51342
4.54533
4.54533
4.73099
4.73099
5.25548
5.25548
4.67819
4.67819
5.13244
5.13244
-35.9029
-35.9029
1300.61
1300.61
1367.4
4.59696
4.59696
5.22714
5.22714
-5.61404
-5.61404
121.391
121.391
4.35859
4.35859
1164.33
1164.33
5.10725
5.10725
5.73678
5.73678
5.23873
5.23873
315.072
315.072
5.14023
5.14023
4.44625
4.44625
-1.00966
-1.00966
838.904
838.904
4.44036
4.44036
0.47471
0.47471
5.20349
5.20349
4.40679
4.40679
1401.24
1401.24
1491.02
5.08154
5.08154
4.48724
4.48724
4.19747
4.19747
4.80535
4.80535
5.61621
5.61621
5.82131
5.82131
4.51024
4.51024
5.90248
5.90248
139.245
139.245
5.65476
5.65476
5.90361
5.90361
5.20157
5.20157
5.64184
5.64184
4.54394
4.54394
5.91401
5.91401
5.17955
5.17955
4.98172
4.98172
5.30849
5.30849
5.34128
5.34128
163.334
163.334
5.66581
5.66581
5.19622
5.19622
773.837
773.837
5.38811
5.38811
4.6768
4.6768
5.67311
5.67311
5.7678
5.7678
3.38526
3.38526
4.38719
4.38719
5.81522
5.81522
4.30927
4.30927
5.6251
5.6251
4.7551
4.7551
6.0182
6.0182
5.08642
5.08642
4.51093
4.51093
5.26038
5.26038
5.09921
5.09921
5.43855
5.43855
4.7404
4.7404
576.613
576.613
5.56909
5.56909
-4.13457
-4.13457
4.3269
4.3269
4.16683
4.16683
-0.439769
-0.439769
4.17582
4.17582
5.97771
5.97771
5.53341
5.53341
5.31976
5.31976
-362.18
-362.18
815.388
815.388
4.38404
4.38404
2.52298
2.52298
4.90527
4.90527
864.174
864.174
4.93356
4.93356
5.82391
5.82391
6.7529
6.7529
4.96844
4.96844
4.30253
4.30253
4.42302
4.42302
4.38228
4.38228
5.36262
5.36262
5.37572
5.37572
5.56997
5.56997
5.45269
5.45269
5.05818
5.05818
5.2348
5.2348
4.47542
4.47542
5.36739
5.36739
5.72787
5.72787
3.8963
3.8963
4.95453
4.95453
0.296951
0.296951
4.25484
4.25484
4.2772
4.2772
5.43625
5.43625
4.10671
4.10671
4.09702
4.09702
4.99361
4.99361
5.64587
5.64587
5.34383
5.34383
5.71122
5.71122
4.50474
4.50474
9.02603
9.02603
4.31108
4.31108
5.03098
5.03098
5.36147
5.36147
666.434
666.434
5.61075
5.61075
5.5585
5.5585
4.17957
4.17957
5.13002
5.13002
-3.33005
-3.33005
-3.29293
5.13023
5.13023
5.46066
5.46066
4.43892
4.43892
4.09521
4.09521
1446.03
1446.03
5.2567
5.2567
3.27464
3.27464
1.61087
1.61087
1631.84
1631.84
1680.21
4.38577
4.38577
4.52113
4.52113
4.11692
4.11692
5.81056
5.81056
5.18533
5.18533
4.91111
4.91111
5.62225
5.62225
4.83027
4.83027
5.19888
5.19888
4.94911
4.94911
4.1376
4.1376
4.59965
4.59965
4.23909
4.23909
5.52436
5.52436
3.60913
3.60913
4.28669
4.28669
5.60336
5.60336
4.52586
4.52586
-2.35086
-2.35086
5.27876
5.27876
4.37276
4.37276
4.56381
4.56381
392.789
392.789
5.52153
5.52153
4.74077
4.74077
4.31526
4.31526
4.64167
4.64167
4.61989
4.61989
5.68639
5.68639
5.06956
5.06956
4.81248
4.81248
4.41512
4.41512
4.88965
4.88965
5.15322
5.15322
5.31816
5.31816
5.88559
5.88559
4.94196
4.94196
5.33485
5.33485
960.605
960.605
3.9872
3.9872
193.476
193.476
230.399
4.79072
4.79072
5.47609
5.47609
5.4916
5.4916
4.18278
4.18278
4.15304
4.15304
5.53817
5.53817
5.2486
5.2486
4.4793
4.4793
4.99713
4.99713
5.37313
5.37313
4.46826
4.46826
4.14008
4.14008
5.72147
5.72147
3.97385
3.97385
4.71652
4.71652
5.39411
5.39411
5.52969
5.52969
5.76185
5.76185
6.497
6.497
4.11932
4.11932
3.99262
3.99262
4.89772
4.89772
5.02789
5.02789
73.3931
73.3931
5.10457
5.10457
5.59432
5.59432
94.7816
94.7816
4.50437
4.50437
5.37075
5.37075
4.79369
4.79369
609.943
609.943
4.74746
4.74746
3.92256
3.92256
3.96344
3.96344
4.71595
4.71595
4.96406
4.96406
4.32126
4.32126
3.92738
3.92738
5.42132
5.42132
5.15133
5.15133
4.74282
4.74282
3.77135
3.77135
4.55232
4.55232
4.47087
4.47087
6.1794
6.1794
4.6162
4.6162
5.62268
5.62268
3.6832
3.6832
4.23073
4.23073
4.52488
4.52488
3.91367
3.91367
4.18967
4.18967
4.80347
4.80347
829.364
829.364
4.2798
4.2798
4.08384
4.08384
5.77216
5.77216
5.23945
5.23945
5.89339
5.89339
3.99863
3.99863
4.1281
4.1281
4.91608
4.91608
5.48472
5.48472
4.36628
4.36628
4.98363
4.98363
4.57557
4.57557
4.12444
4.12444
5.21555
5.21555
3.99734
3.99734
3.9325
3.9325
5.27674
5.27674
5.30516
5.30516
4.95651
4.95651
3.90502
3.90502
5.69404
5.69404
4.07538
4.07538
4.60552
4.60552
4.41069
4.41069
5.11219
5.11219
5.17772
5.17772
10.8464
10.8464
5.84393
5.84393
4.96884
4.96884
4.78207
4.78207
5.80623
5.80623
4.66921
4.66921
5.51241
5.51241
5.65166
5.65166
4.6221
4.6221
3.804
3.804
4.90469
4.90469
5.56219
5.56219
5.5238
5.5238
5.06852
5.06852
5.35239
5.35239
776.564
776.564
6.02643
6.02643
5.08894
5.08894
4.45889
4.45889
4.54435
4.54435
327.042
327.042
762.46
762.46
3.80019
3.80019
4.51663
4.51663
4.60582
4.60582
4.1884
4.1884
3.89402
3.89402
5.58133
5.58133
4.72395
4.72395
5.67653
5.67653
5.81504
5.81504
6.26249
6.26249
954.264
954.264
539.111
539.111
5.11351
5.11351
5.738
5.738
0.22218
0.22218
4.12506
4.12506
5.8291
5.8291
5.35307
5.35307
4.66431
4.66431
3.9344
3.9344
180.254
180.254
5.38547
5.38547
4.49653
4.49653
4.41854
4.41854
4.78007
4.78007
3.99876
3.99876
5.28531
5.28531
3.80748
3.80748
5.79189
5.79189
5.82686
5.82686
4.2262
4.2262
5.73194
5.73194
5.20036
5.20036
3.78947
3.78947
4.86666
4.86666
3.93477
3.93477
6.5797
6.5797
6.0004
6.0004
4.1223
4.1223
6.09651
6.09651
4.51989
4.51989
635.437
635.437
4.88734
4.88734
5.61726
5.61726
406.131
406.131
6.52673
6.52673
6.25554
6.25554
4.27707
4.27707
3.74316
3.74316
4.75695
4.75695
3.73934
3.73934
5.85986
5.85986
6.79357
6.79357
4.06878
4.06878
4.72707
4.72707
823.628
823.628
5.45801
5.45801
4.56318
4.56318
5.10775
5.10775
4.80858
4.80858
5.21958
5.21958
6.16607
6.16607
4.93784
4.93784
3.96149
3.96149
5.79843
5.79843
4.48892
4.48892
5.23978
5.23978
3.73584
3.73584
5.06617
5.06617
4.63263
4.63263
6.758
6.758
837.98
837.98
4.35602
4.35602
4.56278
4.56278
4.00908
4.00908
5.03499
5.03499
4.7897
4.7897
18.4445
18.4445
6.01122
6.01122
3.72849
3.72849
4.98077
4.98077
5.82787
5.82787
3.78188
3.78188
4.52938
4.52938
4.70353
4.70353
5.93228
5.93228
5.4936
5.4936
6.82995
6.82995
4.58819
4.58819
1010.96
1010.96
4.40874
4.40874
4.40147
4.40147
4.12288
4.12288
3.99801
3.99801
5.32054
5.32054
4.70122
4.70122
3.93719
3.93719
3.95739
3.95739
5.08002
5.08002
3.71106
3.71106
4.34581
4.34581
5.64943
5.64943
5.70183
5.70183
3.93465
3.93465
2.09922
2.09922
4.95564
4.95564
5.98758
5.98758
3.80866
3.80866
5.82857
5.82857
4.87661
4.87661
4.75548
4.75548
5.83004
5.83004
5.58458
5.58458
6.19916
6.19916
5.39125
5.39125
4.43142
4.43142
3.74482
3.74482
752.031
752.031
4.86001
4.86001
3.72237
3.72237
5.57354
5.57354
5.35854
5.35854
5.16905
5.16905
4.63973
4.63973
5.64191
5.64191
4.4658
4.4658
3.89923
3.89923
4.47327
4.47327
4.77994
4.77994
3.77277
3.77277
6.41421
6.41421
5.95891
5.95891
4.12021
4.12021
4.06536
4.06536
3.61255
3.61255
3.61531
3.61531
4.90958
4.90958
4.72531
4.72531
3.61789
3.61789
1380.85
1380.85
4.21957
4.21957
6.17316
6.17316
575.409
575.409
4.59728
4.59728
4.17032
4.17032
4.51202
4.51202
5.74782
5.74782
3.95241
3.95241
5.95209
5.95209
5.14916
5.14916
5.21102
5.21102
5.00651
5.00651
4.51433
4.51433
6.00526
6.00526
4.39511
4.39511
4.7655
4.7655
6.64064
6.64064
4.33484
4.33484
3.99527
3.99527
4.56885
4.56885
4.27108
4.27108
5.43974
5.43974
5.61566
5.61566
6.38424
6.38424
3.93277
3.93277
1454.12
1454.12
4.6791
4.6791
4.91464
4.91464
3.80789
3.80789
5.88287
5.88287
3.8955
3.8955
-34.4882
-34.4882
5.20881
5.20881
3.60376
3.60376
4.6972
4.6972
6.13157
6.13157
3.71418
3.71418
-1.33034
-1.33034
0.203823
0.203823
0.175322
6.85628
6.85628
4.81689
4.81689
4.32912
4.32912
3.74471
3.74471
5.93064
5.93064
1038.31
1038.31
5.05247
5.05247
3.55111
3.55111
4.73215
4.73215
3.55388
3.55388
4.21047
4.21047
3.5494
3.5494
5.96589
5.96589
6.60259
6.60259
3.61868
3.61868
4.55957
4.55957
7.05307
7.05307
4.26544
4.26544
968.932
968.932
5.29675
5.29675
6.11024
6.11024
5.48076
5.48076
4.37343
4.37343
4.83542
4.83542
3.80206
3.80206
4.69825
4.69825
1045.08
1045.08
969.102
969.102
4.90203
4.90203
403.469
403.469
6.8061
6.8061
1626.67
1626.67
3.54244
3.54244
115.865
115.865
3.55505
3.55505
3.58473
3.58473
4.40079
4.40079
4.88501
4.88501
6.06922
6.06922
4.49425
4.49425
5.14414
5.14414
6.31164
6.31164
4.32125
4.32125
3.59816
3.59816
4.37994
4.37994
1011.36
1011.36
3.80552
3.80552
4.66131
4.66131
4.06128
4.06128
5.33888
5.33888
4.54989
4.54989
6.28186
6.28186
3.92875
3.92875
6.11584
6.11584
4.90976
4.90976
4.60344
4.60344
0.998031
0.998031
4.65191
4.65191
7.11748
7.11748
3.70702
3.70702
4.20185
4.20185
3.89222
3.89222
837.669
837.669
6.04551
6.04551
5.84578
5.84578
3.95004
3.95004
3.74299
3.74299
4.98279
4.98279
4.44275
4.44275
4.11663
4.11663
5.67039
5.67039
4.13952
4.13952
5.70683
5.70683
5.66531
5.66531
4.91179
4.91179
4.65839
4.65839
613.661
613.661
4.70211
4.70211
3.77611
3.77611
970.748
970.748
3.53778
3.53778
3.61798
3.61798
5.18859
5.18859
4.93623
4.93623
4.20109
4.20109
959.734
959.734
6.96802
6.96802
5.5685
5.5685
6.22619
6.22619
3.42222
3.42222
6.50795
6.50795
4.71096
4.71096
5.69151
5.69151
6.0342
6.0342
4.78658
4.78658
3.77555
3.77555
6.47213
6.47213
3.42807
3.42807
4.25022
4.25022
5.03014
5.03014
3.42611
3.42611
3.55487
3.55487
6.19812
6.19812
3.59137
3.59137
4.52526
4.52526
5.42675
5.42675
4.30705
4.30705
4.81409
4.81409
4.36459
4.36459
4.98092
4.98092
3.35886
3.35886
4.28865
4.28865
1166.31
1166.31
1190.01
4.34931
4.34931
6.98633
6.98633
4.18975
4.18975
4.47714
4.47714
1342.59
1342.59
5.89988
5.89988
4.12982
4.12982
4.86423
4.86423
3.41738
3.41738
5.75536
5.75536
4.59436
4.59436
3.42871
3.42871
6.39731
6.39731
4.76066
4.76066
3.5317
3.5317
3.80144
3.80144
5.99
5.99
5.27914
5.27914
6.71045
6.71045
4.98944
4.98944
3.36185
3.36185
3.71416
3.71416
3.73964
3.73964
187.38
187.38
6.18932
6.18932
3.61592
3.61592
6.6691
6.6691
4.5321