/*--------------------------------*- C++ -*----------------------------------*\
  =========                 |
  \\      /  F ield         | OpenFOAM: The Open Source CFD Toolbox
   \\    /   O peration     | Website:  https://openfoam.org
    \\  /    A nd           | Version:  8
     \\/     M anipulation  |
\*---------------------------------------------------------------------------*/
FoamFile
{
    version     2.0;
    format      ascii;
    class       volScalarField;
    location    "0.2";
    object      p_rgh;
}
// * * * * * * * * * * * * * * * * * * * * * * * * * * * * * * * * * * * * * //

dimensions      [1 -1 -2 0 0 0 0];

internalField   nonuniform List<scalar> 
1924
(
3.05981
2.91225
5.06445
5.41612
2.52774
5.24644
5.62414
5.98439
6.30151
4.64897
6.58316
6.8317
27.3161
7.14138
7.86426
7.87348
7.13652
7.25223
622.405
7.39502
850.734
7.82275
6.55523
7.46704
7.87479
7.99203
8.02089
3.31981
4.45604
1955.52
6.43338
7.92332
-2.88833
6.4436
4.09575
6.68499
8.03182
3.50926
1970.31
6.37554
8.01458
460.289
8.0046
6.69
1754.38
7.30349
1251.63
203.088
672.883
642.529
6.70581
262.738
7.74198
6.58686
7.66587
4.70372
1384.6
1554.17
1005.38
7.94472
6.62036
7.88912
6.65261
2005.1
6.90486
5.00635
7.92134
6.55648
7.0714
6.36982
1.81898
7.89548
1996.58
1911.29
1874.46
1.27467
7.34113
692.729
311.424
6.55671
7.33163
7.99837
1963.91
784.482
-8.72763
6.78158
11.5801
7.85923
260.616
1.20807
7.92582
7.98267
7.12149
5.08037
616.3
6.98212
8.25713
7.26269
7.9538
1.86973
4.90517
790.542
7.95237
7.96816
4.93792
7.31346
12.4362
4.49448
7.93594
5.86273
8.33287
10.0176
3.49839
1952.67
353.967
235
4.95122
7.87572
7.33268
6.87214
-15.3111
1206.48
731.49
-0.247614
7.91163
5.97264
0.457945
7.48854
6.98813
1700.97
8.86608
12.5051
-0.0958393
1933.93
767.202
6.327
3.72813
10.6924
7.55724
3.79761
5.57827
7.90765
445.656
35.3029
6.21018
1838.65
5.10031
1.69256
7.92893
7.37168
2039.09
1267.29
-2.53296
13.2796
5.56895
6.34606
1618.02
3.92692
9.0004
1958.76
1942.05
0.165832
13.6393
1168.49
2036.24
6.07273
6.9634
1727.36
7.38225
12.5407
1.86216
6.1312
7.29156
7.9628
6.37716
4.52747
1965.02
1.10032
6.77364
13.2453
7.62759
7.863
712.617
7.20581
605.58
1074.11
-2.61802
7.83827
7.01409
1883.47
6.09329
6.36391
7.48869
8.72112
7.45079
1174.62
7.91818
6.74769
6.76186
143.652
9.18743
202.144
7.04774
6.85843
2.45571
7.82416
7.80679
651.683
2.12973
1.67605
978.169
13.1176
7.72316
7.62839
7.85432
9.37926
7.92133
6.05101
7.68697
7.24175
6.66605
1922.37
7.14915
7.76135
6.999
7.93026
6.68691
7.2276
7.73039
94.5026
1.81964
7.94021
7.19599
1.35041
7.94127
2092.56
7.70704
7.87286
7.2224
993.489
7.8663
7.89194
7.65811
664.22
1484.81
457.695
7.33728
7.19252
125.157
7.26146
1522.3
1127.36
7.80727
13.2746
6.97926
7.79214
7.98267
8.06138
6.72025
7.79062
7.27158
7.51526
7.95112
9.46185
7.92947
1753.05
16.6264
7.3905
2.89584
1268.14
45.2626
2008.33
3.63032
8.10638
7.9398
7.34847
7.40988
7.94852
10.7463
34.0276
39.9722
1367.4
7.9307
7.84554
128.876
1834.34
6.85101
1320.9
7.88943
7.99906
7.64119
1967.36
7.94783
7.75636
342.762
2027
7.81535
688.613
7.38362
7.78056
1491.02
7.35901
7.67005
7.91477
7.5935
8.08705
9.00706
7.62939
8.09751
1578.77
888.709
7.3295
7.87951
7.6843
6.88688
7.12577
7.36297
7.82254
7.78875
7.63004
1941.11
12.6445
7.55913
2018.62
8.04197
7.29473
7.97461
8.12429
5.57136
6.98214
13.5413
7.91899
7.60331
7.60196
8.0701
7.95304
7.93665
7.82877
7.88891
7.84098
7.29003
1991.43
7.80424
702.301
7.82799
7.89346
23.0454
7.91111
7.36165
8.0718
7.93556
1151.96
2060.17
7.75781
865.029
7.32422
1213.74
7.88864
7.95434
7.01925
7.94941
7.80362
7.73314
7.92877
7.91023
7.85475
7.73622
7.84965
7.90773
7.88282
7.65823
7.71539
8.03575
7.85857
7.95472
1.38281
7.81958
7.84582
7.86042
7.90392
7.89407
7.34889
8.0016
7.80048
9.67325
7.62389
205.784
7.92145
7.95587
7.92885
2024.58
7.6491
8.02511
7.91665
7.88298
-1.80838
7.93564
7.82117
7.11537
7.88124
1833.46
7.49472
220.538
3.41943
1680.21
7.93106
7.51109
7.91183
8.005
7.92707
7.95169
7.59693
7.85184
7.84386
7.91138
7.90607
7.40466
7.80383
7.00761
5.87234
7.78777
7.52214
7.45216
619.395
7.88866
7.74653
6.97003
1984.19
7.7495
7.93885
7.9275
7.38303
7.93962
7.53046
7.90465
7.94363
7.72524
44.7652
7.90415
7.8644
8.0928
7.93414
7.85165
2035.34
7.90522
1701.68
7.94527
7.64825
8.01759
7.92022
7.85348
7.70248
7.87569
7.26009
7.92531
8.01185
7.65106
7.83213
7.50188
7.89162
7.32641
7.81304
6.55668
7.41496
14.9413
7.91783
7.91033
7.92088
7.85888
1005.59
7.90544
7.63132
1886.11
7.62352
7.1874
7.33995
2008.87
7.88498
7.90156
7.88055
7.94326
7.90269
7.92576
7.90628
7.7766
7.88854
7.92597
7.8631
7.93112
7.02933
9.37937
7.92994
7.59602
5.95096
7.79547
7.51671
7.89257
7.92268
7.92297
2017.47
7.78088
7.84406
7.77773
7.84936
7.57798
7.90111
7.82015
7.90792
7.71268
7.74005
7.40257
7.50375
7.91877
7.9034
7.91431
7.91082
7.82299
8.00421
7.89308
7.88345
7.54007
7.83109
7.40638
7.72081
7.91074
7.99012
68.7093
6.78552
7.89703
7.9195
7.46129
7.86976
7.67672
6.95339
6.14712
7.90514
7.91066
7.43832
6.58903
7.86939
7.77132
2017.14
6.79884
7.45066
7.6417
7.91812
1982.06
2018.09
7.90156
7.36752
7.91594
7.91967
7.87157
7.61833
7.90676
7.04451
6.81801
6.85982
2028.96
2003.2
7.85072
7.52037
1.93582
7.9179
7.85364
6.84752
7.40152
7.07585
1961.64
7.74074
7.61568
7.92207
7.89921
7.91468
7.56029
7.90811
6.91976
7.26178
7.79094
7.23757
7.81026
7.89065
7.86864
7.91225
6.99256
6.83236
7.81435
7.34077
7.51172
1993.58
7.87918
7.5906
1640.07
7.00939
6.91821
7.77815
7.90541
7.07974
7.90198
7.45126
7.01825
7.82449
7.92554
2031.28
7.68597
7.87731
7.98484
7.41848
6.79025
7.36318
7.86602
7.85092
6.99212
7.05809
7.78602
7.89858
7.92625
6.21329
7.05724
2026.67
7.72979
7.49096
6.33867
7.83585
7.90528
637.463
6.96578
7.89114
7.97169
7.15138
7.88254
7.90315
7.10869
7.39637
7.65791
7.06443
7.89831
2028.97
7.90982
7.71159
7.91389
7.91257
7.73947
7.88402
7.89398
7.84041
7.81723
7.8597
7.9116
7.62456
7.54786
7.91096
3.95415
7.92761
7.00549
7.90849
7.48363
7.42286
7.87463
7.22118
7.13786
6.98216
7.60405
7.61422
7.90643
2023.35
7.85184
7.88465
7.61054
7.71381
7.77895
7.44059
6.56491
7.10008
7.84779
7.59242
7.89361
7.87255
7.02298
7.10461
7.81227
7.82107
7.89834
7.90095
7.83776
7.91147
7.90316
2079.87
7.78431
7.0174
1990.11
7.92072
6.58704
7.88579
7.53019
7.83543
7.16137
7.57039
7.75726
7.80737
7.50616
7.4057
7.89619
6.1237
7.07104
7.89958
7.90817
7.87897
7.77216
7.6677
7.589
7.0538
7.90765
2082.41
7.8619
7.96754
7.90667
7.47428
7.84217
260.959
7.56651
7.8894
7.4344
7.10064
7.87575
-0.410481
1.39861
7.10494
6.33963
7.70289
7.90544
7.27189
2045.32
7.78969
7.89854
7.8513
7.90104
7.90481
7.8969
7.42999
7.09376
7.90335
7.48775
7.16205
6.77935
2043.67
7.71568
7.14128
7.64506
7.68355
7.82726
7.89042
7.88097
2058.05
2041.18
7.93585
1994.87
7.1161
1988.6
7.88987
1922.77
7.90174
7.86339
7.58359
7.81319
7.22591
7.86802
7.75405
7.10366
7.88599
7.88339
7.88102
2029.09
7.90301
6.07624
7.81699
7.69415
7.86001
7.13537
7.90195
7.38896
7.51967
7.90516
2.71214
7.66198
121.218
7.86759
7.8939
7.8389
2021.57
7.26655
7.50084
7.83306
7.90262
7.78366
7.56189
7.80868
6.18821
7.89647
7.55286
6.5589
6.4922
7.8412
2014.1
7.50298
7.85441
2052.35
7.88491
7.90186
7.73484
7.54323
7.76583
2034.19
7.07952
7.60549
7.20338
7.89342
7.12116
7.83011
7.39142
7.43463
7.93264
7.84953
7.14656
7.8989
7.75131
7.76736
7.89721
7.9009
7.23738
7.87593
7.51709
7.65471
7.87179
7.80593
7.86568
7.52716
7.89207
7.66242
1545.46
6.95904
7.10762
7.8818
7.85091
1587.52
7.49128
7.88553
7.79241
7.88846
7.53773
7.89456
7.89911
7.19476
7.49788
7.87829
7.89745
7.45409
7.69807
7.14291
7.47737
7.89502
7.85423
7.89796
1969.22
7.39878
7.89883
7.16281
7.84222
7.22155
7.30542
7.64024
7.58772
7.36814
7.91213
7.73467
1989.87
7.50341
7.35263
350.126
7.89182
2036.98
7.63595
7.88963
799.1
7.88457
7.82268
7.89856
7.15762
7.89787
7.89734
7.7646
7.55792
62.8067
7.86208
7.83637
7.83066
7.80632
7.88384
7.4178
7.86922
7.27787
6.66402
7.67977
7.16131
7.85777
7.81164
7.84685
7.19659
7.8741
7.85075
7.86938
2007.58
7.79578
6.24359
7.17392
7.89793
7.21844
7.85095
7.7178
7.4963
7.39025
7.87208
7.78815
2059.41
7.73098
7.30439
7.54126
7.93671
7.8866
7.88204
7.74968
7.88501
7.83526
7.5119
7.89432
6.38015
7.89107
7.5562
7.88497
7.8972
7.53303
3.9381
7.70987
6.28161
7.14948
7.89199
7.77541
7.89476
7.26175
7.87828
7.45479
7.82628
2060.27
7.60199
7.89449
120.741
7.38627
2.14959
7.28428
7.88821
2031.36
7.61563
7.64562
7.78393
7.20321
7.89546
7.85895
7.80687
7.86268
7.22111
7.53611
7.68532
7.4967
7.85729
7.86656
2023.79
7.88222
7.87194
7.8957
3.02162
7.88
7.87562
7.42224
7.72009
7.84469
7.89581
7.79622
2074.9
2063.08
7.54283
7.65199
7.89527
7.59416
7.7496
7.58672
7.51656
7.50225
7.89328
7.89076
7.32977
7.83751
7.2547
7.47074
7.88835
7.62958
6.37725
7.8732
7.2899
7.83089
2080.22
7.77399
7.27342
7.88387
7.88873
7.82332
7.78331
7.88986
7.88206
7.6695
7.82154
7.84832
7.86534
7.84435
608.229
7.53001
7.54384
7.89178
7.70525
7.89482
1841.28
1997.07
2029.58
7.43782
7.76585
7.89431
7.21204
7.22447
7.73621
7.40002
2040.25
7.81273
7.39454
7.87521
7.82966
7.89486
7.885
7.85186
7.67947
7.86629
7.86201
7.89218
7.76233
7.85591
7.3109
7.79398
7.2252
7.68322
7.84608
7.85869
7.89428
7.5584
7.87375
7.40879
7.59957
2062.18
7.32952
7.54348
7.86887
7.83306
7.64995
7.253
7.87968
7.26876
7.78398
7.63936
7.87676
7.89277
7.19819
7.88709
7.67636
7.82583
1976.6
7.8872
7.7096
921.904
7.37357
7.51874
7.57264
7.88412
7.881
7.87768
7.73862
7.88952
407.79
1987.74
7.81018
7.88815
7.87083
7.14617
7.89267
7.29931
7.58597
7.76338
7.46844
7.21084
7.85736
7.12512
7.43831
7.86558
7.89232
7.85271
7.31516
7.89301
7.10222
7.10073
7.73639
7.3625
7.80175
7.84507
7.62524
7.8421
7.86902
7.38653
7.8839
7.83957
7.81894
5.14901
7.88975
7.66244
7.2255
7.5663
7.88739
7.89318
7.87579
7.69645
7.54611
7.8362
7.80618
7.74356
7.26726
7.72662
7.88459
7.11046
7.2559
7.41249
7.78414
7.55315
7.82327
7.75275
2002.7
554.651
7.89012
7.71359
7.8772
7.88934
7.86735
7.85316
7.34701
7.89236
2045.44
7.88196
7.87516
7.13859
7.53489
7.81623
946.562
7.29318
7.88342
7.61877
7.77493
7.85613
7.50894
7.45118
7.30678
7.80807
7.89135
7.88597
2090.5
1851.9
7.89208
7.89248
7.42415
7.88059
7.48201
7.87631
7.5979
7.24186
7.80136
7.86164
7.84924
7.55989
7.63524
7.85788
2076.55
2022
7.88637
2035.79
7.84442
7.67044
7.39259
7.89199
7.87237
7.88678
7.55961
7.89066
7.70259
7.83379
2093.95
7.59871
7.88833
7.73119
7.86441
7.33338
7.88154
70.3939
2020.99
7.88381
7.7935
7.83905
1.57225
-0.428539
7.86832
7.82797
7.75606
2033.64
7.87369
7.34659
7.4029
7.0831
7.56594
7.82998
7.81557
7.87116
7.84914
7.88665
7.88835
7.88433
7.52232
7.89064
7.58605
7.86236
7.89056
7.88815
7.3024
7.29247
7.8775
7.7773
7.88163
7.62319
2038.9
7.87828
7.65868
7.88981
7.69151
7.89115
2087.77
7.79805
2098.25
1971.99
7.88285
7.89096
7.72103
7.18495
2103.33
7.80892
7.37778
7.44832
7.747
7.54847
7.85336
7.85488
7.77643
7.32504
7.42415
7.68984
7.84224
7.87847
7.85096
7.47673
7.33649
6.66625
7.89046
7.88753
7.2793
7.89033
7.57377
7.86194
7.88117
7.88498
7.83746
7.88942
7.76937
7.89072
2074.43
7.8885
7.38682
7.88583
7.88183
7.87288
7.79517
1981.17
7.865
7.82719
2057.75
7.86946
7.88943
7.64365
7.89026
1762.62
7.51237
7.88372
7.12325
7.14754
5.24106
7.82166
7.84263
1330.3
7.40511
7.88882
7.8857
7.18521
7.8861
7.88972
7.88898
7.78833
7.87699
1993.37
7.88773
7.84922
7.43363
7.88903
7.8708
7.45941
7.87857
7.87052
7.36997
7.82946
7.35904
7.87475
7.34489
7.5507
2021.77
7.48902
7.88844
7.22941
7.88135
7.88952
2027.78
7.88911
7.8101
7.88418
7.85965
6.91005
7.52077
7.8881
7.88148
7.61503
553.325
553.004
7.3305
2099.78
7.88754
7.32216
7.84903
7.8786
7.85617
7.88908
7.8793
7.88239
1666.33
7.87227
1999.98
2012.82
7.87563
7.88204
2118.23
7.56426
7.85937
7.41287
7.84511
7.56286
7.39087
7.60007
7.88691
7.31048
2102.72
2117.04
7.63635
7.86699
2093.68
7.88904
7.83665
2075.28
7.6706
7.88875
7.70198
7.81486
1359.14
7.73002
7.80426
1298.77
7.88901
7.88876
1787.82
7.56912
7.75454
7.86765
7.34966
7.88728
7.86513
7.88712
7.83207
7.88374
7.88422
7.36243
7.87745
7.52631
7.88556
2106.75
7.88784
7.84313
7.87415
7.35912
17.9159
7.26838
2118.47
7.77559
7.86194
7.85619
7.87877
7.82248
7.88802
7.39692
7.88812
7.88488
7.57283
7.83316
7.87928
7.38143
7.88867
7.77509
7.88862
7.88171
7.87984
7.88113
7.49268
7.86977
7.85448
7.46248
7.886
7.86842
7.62891
7.88727
7.85145
7.87692
7.79334
7.88436
7.86293
7.85126
7.43629
7.8735
7.81754
7.8861
7.88205
2082.96
7.86768
7.73398
7.86032
7.87234
7.87503
7.8824
2123.54
7.87632
2139.37
7.87325
7.38568
7.88642
2051.5
7.89391
7.89032
7.60189
7.84433
2146.05
7.86968
7.88701
2143.79
7.3357
7.30126
5.39458
7.87779
7.85628
7.85943
2121.76
7.84551
7.85217
7.41484
7.88366
7.34548
7.8744
7.86575
7.8877
7.87136
7.84055
7.35219
7.81998
7.80819
7.87893
7.8636
7.83672
7.85883
2140.79
7.55051
7.87967
2104.67
7.5876
7.88096
7.62418
7.8757
7.87731
7.6591
7.8843
7.88985
7.69143
7.87114
7.84733
7.39826
7.72058
7.74626
7.85621
7.49321
7.87252
7.87775
7.83265
7.86794
7.88033
2055.31
778.442
254.82
7.76842
7.85054
7.88537
7.87805
7.88519
7.86619
2167.68
7.88854
7.86228
7.87507
7.88727
7.38659
7.36805
2131.38
7.78724
7.88301
7.8818
7.32823
7.84059
7.86816
7.8722
7.85452
7.86015
7.5146
7.48195
7.88624
7.87904
7.45312
7.87493
7.82058
7.86958
7.8285
2125.2
7.88869
7.89061
7.88887
7.37586
7.82478
7.87433
7.87337
7.87618
7.86641
7.85179
7.85554
7.87035
7.86497
7.4286
7.86849
7.85589
7.84742
7.37782
7.85845
7.80299
7.87132
2025.83
2084.14
2127.92
7.85913
7.86324
7.86958
7.87555
7.89051
7.87822
2163.27
7.35529
7.75012
7.87074
7.87277
7.87563
7.8595
7.862
7.87295
7.88069
7.853
7.64575
7.72258
7.79723
7.40881
7.88327
7.84545
7.86699
7.86187
7.84094
7.87602
7.88084
7.87783
2157.12
7.86974
7.81622
7.39391
7.86561
7.88454
7.34955
7.87148
7.87422
7.87683
7.89151
7.8626
7.88969
7.88729
7.87337
7.86437
7.88823
7.85669
7.85745
7.88678
7.8646
7.87056
2112.57
7.86733
7.87832
7.86843
7.83087
7.8477
7.86834
7.37958
7.38435
7.87224
2152.05
7.88431
7.87027
7.86174
7.86421
7.87179
7.87947
7.88229
7.86498
7.87445
7.86096
7.8668
7.86494
7.86071
2174.95
2178.98
7.86847
7.8665
7.86301
7.36294
535.705
7.87746
7.88832
7.8737
7.87633
7.87482
7.87143
7.83079
7.82714
7.86963
7.86656
7.86365
7.85316
7.83896
7.8525
7.83748
7.86587
7.88017
7.87237
7.86677
7.36789
7.86564
7.87324
7.8575
2148.83
2134.19
7.87475
7.86781
7.86758
7.87839
7.87995
7.874
7.86896
7.88201
7.86979
7.85075
7.86873
7.87072
7.8702
7.86312
7.86091
7.81095
7.84476
7.87614
7.86772
7.87883
7.88523
7.88642
7.87285
7.81831
7.87374
7.87292
7.86352
7.87656
7.87361
7.86835
7.86546
7.84602
7.85144
7.84934
7.87539
7.36543
7.87506
7.87134
7.86646
7.87379
7.87286
7.87148
7.87557
7.87626
7.87446
7.8828
7.87738
7.88154
7.86942
7.873
7.87535
7.87215
7.8555
7.87738
7.86789
7.86697
7.86587
7.87606
7.87687
7.85924
7.87524
7.87384
7.86214
7.88072
7.87977
7.86434
7.76763
7.87357
7.87301
7.87495
7.8768
7.87581
2152.29
2164.62
7.87717
2163.64
7.87673
2174.47
7.85776
7.85924
7.88412
7.8558
7.85404
7.84345
7.86193
7.86067
7.8361
7.83916
7.87251
7.87196
7.87767
7.87215
7.87266
7.87254
7.87314
7.87452
7.8664
7.86606
7.86548
7.86454
7.86289
7.864
7.8738
7.87664
280.832
7.87488
7.87448
7.87437
7.36937
7.3758
2069.11
808.341
2008.88
7.3789
7.37469
7.46369
6.82437
7.37799
7.3777
1747.69
6.90812
1994.34
2013.05
7.37914
1921.6
7.51875
1155.54
2057.97
7.49517
1588.62
5.15945
311.363
2037.37
7.27865
7.20943
1096.47
1057.23
-385.848
961.821
767.783
1165.01
2062.92
1977.13
1935.18
1791.87
772.123
1554.15
1810.57
96.7823
7.48323
2370.48
3.47669
2.5241
1953.3
2013.89
1067.7
1419.12
11.2406
1462.42
1942.33
2044.91
1772.4
1257.92
1027.4
932.699
944.346
894.905
1121
2220.4
2154.74
2075.73
32.4242
734.82
8.82831
496.422
1694.49
1.85844
1258.61
224.77
2071.5
9.36259
1753.47
162.871
6.03857
622.755
548.631
1664.19
14.3148
1987.22
7.48429
6.69796
6.82534
7.26595
1653.29
7.53888
1890.76
252.626
1744.84
5.60125
6.57761
7.59035
370.606
165.269
2208.25
6.91041
7.37133
475.916
7.52882
6.99823
439.414
7.17776
7.47201
1405.4
7.33487
1339.57
1437.3
1449.83
-834.201
7.23542
1995.7
1825.44
7.51826
)
;

boundaryField
{
    patch0
    {
        type            fixedFluxPressure;
        gradient        uniform 0;
        value           nonuniform List<scalar> 
4010
(
3.05981
3.05981
2.91225
2.91225
5.06445
5.06445
5.41612
5.41612
2.52774
2.52774
5.24644
5.24644
5.62414
5.62414
5.98439
5.98439
6.30151
6.30151
4.64897
4.64897
6.58316
6.58316
6.8317
6.8317
27.3161
27.3161
7.14138
7.14138
7.86426
7.86426
7.87348
7.87348
7.13652
7.13652
7.25223
7.25223
622.405
622.405
7.39502
7.39502
850.734
850.734
7.82275
7.82275
6.55523
6.55523
7.46704
7.46704
7.87479
7.87479
7.99203
7.99203
8.02089
8.02089
3.31981
3.31981
4.45604
4.45604
1955.52
1955.52
6.43338
6.43338
7.92332
7.92332
-2.88833
-2.88833
6.4436
6.4436
4.09575
4.09575
6.68499
6.68499
8.03182
8.03182
3.50926
3.50926
1970.31
1970.31
6.37554
6.37554
8.01458
8.01458
460.289
460.289
8.0046
8.0046
6.69
6.69
1754.38
1754.38
7.30349
7.30349
1251.63
1251.63
203.088
203.088
672.883
672.883
642.529
642.529
6.70581
6.70581
262.738
262.738
7.74198
7.74198
6.58686
6.58686
7.66587
7.66587
4.70372
4.70372
1384.6
1384.6
1554.17
1554.17
1005.38
1005.38
7.94472
7.94472
6.62036
6.62036
7.88912
7.88912
6.65261
6.65261
2005.1
2005.1
6.90486
6.90486
5.00635
5.00635
7.92134
7.92134
6.55648
6.55648
7.0714
7.0714
6.36982
6.36982
1.81898
1.81898
7.89548
7.89548
1996.58
1996.58
1911.29
1911.29
1874.46
1874.46
1.27467
1.27467
7.34113
7.34113
692.729
692.729
311.424
311.424
6.55671
6.55671
7.33163
7.33163
7.99837
7.99837
1963.91
1963.91
784.482
784.482
-8.72763
-8.72763
6.78158
6.78158
11.5801
11.5801
7.85923
7.85923
260.616
260.616
1.20807
1.20807
7.92582
7.92582
7.98267
7.98267
7.12149
7.12149
5.08037
5.08037
616.3
616.3
6.98212
6.98212
8.25713
8.25713
7.26269
7.26269
7.9538
7.9538
1.86973
1.86973
4.90517
4.90517
790.542
790.542
7.95237
7.95237
7.96816
7.96816
4.93792
4.93792
7.31346
7.31346
12.4362
12.4362
4.49448
4.49448
7.93594
7.93594
5.86273
5.86273
8.33287
8.33287
10.0176
10.0176
3.49839
3.49839
1952.67
1952.67
353.967
353.967
235
235
4.95122
4.95122
7.87572
7.87572
7.33268
7.33268
6.87214
6.87214
-15.3111
-15.3111
1206.48
1206.48
731.49
731.49
-0.247614
-0.247614
7.91163
7.91163
5.97264
5.97264
0.457945
0.457945
7.48854
7.48854
6.98813
6.98813
1700.97
1700.97
8.86608
8.86608
12.5051
12.5051
-0.0958393
-0.0958393
1933.93
1933.93
767.202
767.202
6.327
6.327
3.72813
3.72813
10.6924
10.6924
7.55724
7.55724
3.79761
3.79761
5.57827
5.57827
7.90765
7.90765
445.656
445.656
445.656
35.3029
35.3029
35.3029
6.21018
6.21018
1838.65
1838.65
5.10031
5.10031
1.69256
1.69256
7.92893
7.92893
7.37168
7.37168
2039.09
2039.09
1267.29
1267.29
1267.29
-2.53296
-2.53296
13.2796
13.2796
5.56895
5.56895
6.34606
6.34606
1618.02
1618.02
3.92692
3.92692
9.0004
9.0004
1958.76
1958.76
1942.05
1942.05
0.165832
0.165832
13.6393
13.6393
1168.49
1168.49
2036.24
2036.24
6.07273
6.07273
6.9634
6.9634
1727.36
1727.36
7.38225
7.38225
12.5407
12.5407
1.86216
1.86216
6.1312
6.1312
7.29156
7.29156
7.9628
7.9628
6.37716
6.37716
4.52747
4.52747
1965.02
1965.02
1.10032
1.10032
6.77364
6.77364
13.2453
13.2453
7.62759
7.62759
7.863
7.863
712.617
712.617
7.20581
7.20581
605.58
605.58
1074.11
1074.11
-2.61802
-2.61802
7.83827
7.83827
7.01409
7.01409
1883.47
1883.47
6.09329
6.09329
6.36391
6.36391
7.48869
7.48869
8.72112
8.72112
7.45079
7.45079
1174.62
1174.62
1174.62
7.91818
7.91818
6.74769
6.74769
6.76186
6.76186
143.652
143.652
9.18743
9.18743
202.144
202.144
7.04774
7.04774
6.85843
6.85843
2.45571
2.45571
7.82416
7.82416
7.80679
7.80679
651.683
651.683
2.12973
2.12973
1.67605
1.67605
1.67605
978.169
978.169
13.1176
13.1176
7.72316
7.72316
7.62839
7.62839
7.85432
7.85432
9.37926
9.37926
7.92133
7.92133
6.05101
6.05101
7.68697
7.68697
7.24175
7.24175
6.66605
6.66605
1922.37
1922.37
7.14915
7.14915
7.76135
7.76135
6.999
6.999
7.93026
7.93026
6.68691
6.68691
7.2276
7.2276
7.73039
7.73039
94.5026
94.5026
1.81964
1.81964
7.94021
7.94021
7.19599
7.19599
1.35041
1.35041
7.94127
7.94127
2092.56
2092.56
2092.56
7.70704
7.70704
7.87286
7.87286
7.2224
7.2224
993.489
993.489
993.489
7.8663
7.8663
7.89194
7.89194
7.65811
7.65811
664.22
664.22
1484.81
1484.81
457.695
457.695
7.33728
7.33728
7.19252
7.19252
125.157
125.157
7.26146
7.26146
1522.3
1522.3
1127.36
1127.36
7.80727
7.80727
13.2746
13.2746
6.97926
6.97926
7.79214
7.79214
7.98267
7.98267
8.06138
8.06138
6.72025
6.72025
7.79062
7.79062
7.27158
7.27158
7.51526
7.51526
7.95112
7.95112
9.46185
9.46185
7.92947
7.92947
1753.05
1753.05
16.6264
16.6264
7.3905
7.3905
2.89584
2.89584
1268.14
1268.14
45.2626
45.2626
2008.33
2008.33
3.63032
3.63032
8.10638
8.10638
7.9398
7.9398
7.34847
7.34847
7.40988
7.40988
7.94852
7.94852
10.7463
10.7463
34.0276
34.0276
39.9722
39.9722
1367.4
1367.4
1367.4
7.9307
7.9307
7.84554
7.84554
128.876
128.876
1834.34
1834.34
6.85101
6.85101
1320.9
1320.9
7.88943
7.88943
7.99906
7.99906
7.64119
7.64119
1967.36
1967.36
7.94783
7.94783
7.75636
7.75636
342.762
342.762
2027
2027
7.81535
7.81535
688.613
688.613
7.38362
7.38362
7.78056
7.78056
1491.02
1491.02
1491.02
7.35901
7.35901
7.67005
7.67005
7.91477
7.91477
7.5935
7.5935
8.08705
8.08705
9.00706
9.00706
7.62939
7.62939
8.09751
8.09751
1578.77
1578.77
888.709
888.709
7.3295
7.3295
7.87951
7.87951
7.6843
7.6843
6.88688
6.88688
7.12577
7.12577
7.36297
7.36297
7.82254
7.82254
7.78875
7.78875
7.63004
7.63004
1941.11
1941.11
12.6445
12.6445
7.55913
7.55913
2018.62
2018.62
8.04197
8.04197
7.29473
7.29473
7.97461
7.97461
8.12429
8.12429
5.57136
5.57136
6.98214
6.98214
13.5413
13.5413
7.91899
7.91899
7.60331
7.60331
7.60196
7.60196
8.0701
8.0701
7.95304
7.95304
7.93665
7.93665
7.82877
7.82877
7.88891
7.88891
7.84098
7.84098
7.29003
7.29003
1991.43
1991.43
7.80424
7.80424
702.301
702.301
7.82799
7.82799
7.89346
7.89346
23.0454
23.0454
7.91111
7.91111
7.36165
7.36165
8.0718
8.0718
7.93556
7.93556
1151.96
1151.96
2060.17
2060.17
7.75781
7.75781
865.029
865.029
7.32422
7.32422
1213.74
1213.74
7.88864
7.88864
7.95434
7.95434
7.01925
7.01925
7.94941
7.94941
7.80362
7.80362
7.73314
7.73314
7.92877
7.92877
7.91023
7.91023
7.85475
7.85475
7.73622
7.73622
7.84965
7.84965
7.90773
7.90773
7.88282
7.88282
7.65823
7.65823
7.71539
7.71539
8.03575
8.03575
7.85857
7.85857
7.95472
7.95472
1.38281
1.38281
7.81958
7.81958
7.84582
7.84582
7.86042
7.86042
7.90392
7.90392
7.89407
7.89407
7.34889
7.34889
8.0016
8.0016
7.80048
7.80048
9.67325
9.67325
7.62389
7.62389
205.784
205.784
7.92145
7.92145
7.95587
7.95587
7.92885
7.92885
2024.58
2024.58
7.6491
7.6491
8.02511
8.02511
7.91665
7.91665
7.88298
7.88298
-1.80838
-1.80838
-1.80838
7.93564
7.93564
7.82117
7.82117
7.11537
7.11537
7.88124
7.88124
1833.46
1833.46
7.49472
7.49472
220.538
220.538
3.41943
3.41943
1680.21
1680.21
1680.21
7.93106
7.93106
7.51109
7.51109
7.91183
7.91183
8.005
8.005
7.92707
7.92707
7.95169
7.95169
7.59693
7.59693
7.85184
7.85184
7.84386
7.84386
7.91138
7.91138
7.90607
7.90607
7.40466
7.40466
7.80383
7.80383
7.00761
7.00761
5.87234
5.87234
7.78777
7.78777
7.52214
7.52214
7.45216
7.45216
619.395
619.395
7.88866
7.88866
7.74653
7.74653
6.97003
6.97003
1984.19
1984.19
7.7495
7.7495
7.93885
7.93885
7.9275
7.9275
7.38303
7.38303
7.93962
7.93962
7.53046
7.53046
7.90465
7.90465
7.94363
7.94363
7.72524
7.72524
44.7652
44.7652
7.90415
7.90415
7.8644
7.8644
8.0928
8.0928
7.93414
7.93414
7.85165
7.85165
2035.34
2035.34
7.90522
7.90522
1701.68
1701.68
1701.68
7.94527
7.94527
7.64825
7.64825
8.01759
8.01759
7.92022
7.92022
7.85348
7.85348
7.70248
7.70248
7.87569
7.87569
7.26009
7.26009
7.92531
7.92531
8.01185
8.01185
7.65106
7.65106
7.83213
7.83213
7.50188
7.50188
7.89162
7.89162
7.32641
7.32641
7.81304
7.81304
6.55668
6.55668
7.41496
7.41496
14.9413
14.9413
7.91783
7.91783
7.91033
7.91033
7.92088
7.92088
7.85888
7.85888
1005.59
1005.59
7.90544
7.90544
7.63132
7.63132
1886.11
1886.11
7.62352
7.62352
7.1874
7.1874
7.33995
7.33995
2008.87
2008.87
7.88498
7.88498
7.90156
7.90156
7.88055
7.88055
7.94326
7.94326
7.90269
7.90269
7.92576
7.92576
7.90628
7.90628
7.7766
7.7766
7.88854
7.88854
7.92597
7.92597
7.8631
7.8631
7.93112
7.93112
7.02933
7.02933
9.37937
9.37937
7.92994
7.92994
7.59602
7.59602
5.95096
5.95096
7.79547
7.79547
7.51671
7.51671
7.89257
7.89257
7.92268
7.92268
7.92297
7.92297
2017.47
2017.47
7.78088
7.78088
7.84406
7.84406
7.77773
7.77773
7.84936
7.84936
7.57798
7.57798
7.90111
7.90111
7.82015
7.82015
7.90792
7.90792
7.71268
7.71268
7.74005
7.74005
7.40257
7.40257
7.50375
7.50375
7.91877
7.91877
7.9034
7.9034
7.91431
7.91431
7.91082
7.91082
7.82299
7.82299
8.00421
8.00421
7.89308
7.89308
7.88345
7.88345
7.54007
7.54007
7.83109
7.83109
7.40638
7.40638
7.72081
7.72081
7.91074
7.91074
7.99012
7.99012
68.7093
68.7093
6.78552
6.78552
7.89703
7.89703
7.9195
7.9195
7.46129
7.46129
7.86976
7.86976
7.67672
7.67672
6.95339
6.95339
6.14712
6.14712
7.90514
7.90514
7.91066
7.91066
7.43832
7.43832
6.58903
6.58903
7.86939
7.86939
7.77132
7.77132
2017.14
2017.14
6.79884
6.79884
7.45066
7.45066
7.6417
7.6417
7.91812
7.91812
1982.06
1982.06
2018.09
2018.09
7.90156
7.90156
7.36752
7.36752
7.91594
7.91594
7.91967
7.91967
7.87157
7.87157
7.61833
7.61833
7.90676
7.90676
7.04451
7.04451
6.81801
6.81801
6.85982
6.85982
2028.96
2028.96
2003.2
2003.2
7.85072
7.85072
7.52037
7.52037
1.93582
1.93582
7.9179
7.9179
7.85364
7.85364
6.84752
6.84752
7.40152
7.40152
7.07585
7.07585
1961.64
1961.64
7.74074
7.74074
7.61568
7.61568
7.92207
7.92207
7.89921
7.89921
7.91468
7.91468
7.56029
7.56029
7.90811
7.90811
6.91976
6.91976
7.26178
7.26178
7.79094
7.79094
7.23757
7.23757
7.81026
7.81026
7.89065
7.89065
7.86864
7.86864
7.91225
7.91225
6.99256
6.99256
6.83236
6.83236
7.81435
7.81435
7.34077
7.34077
7.51172
7.51172
1993.58
1993.58
7.87918
7.87918
7.5906
7.5906
1640.07
1640.07
7.00939
7.00939
6.91821
6.91821
7.77815
7.77815
7.90541
7.90541
7.07974
7.07974
7.90198
7.90198
7.45126
7.45126
7.01825
7.01825
7.82449
7.82449
7.92554
7.92554
2031.28
2031.28
7.68597
7.68597
7.87731
7.87731
7.98484
7.98484
7.41848
7.41848
6.79025
6.79025
7.36318
7.36318
7.86602
7.86602
7.85092
7.85092
6.99212
6.99212
7.05809
7.05809
7.78602
7.78602
7.89858
7.89858
7.92625
7.92625
6.21329
6.21329
7.05724
7.05724
2026.67
2026.67
7.72979
7.72979
7.49096
7.49096
6.33867
6.33867
7.83585
7.83585
7.90528
7.90528
637.463
637.463
6.96578
6.96578
7.89114
7.89114
7.97169
7.97169
7.15138
7.15138
7.88254
7.88254
7.90315
7.90315
7.10869
7.10869
7.39637
7.39637
7.65791
7.65791
7.06443
7.06443
7.89831
7.89831
2028.97
2028.97
7.90982
7.90982
7.71159
7.71159
7.91389
7.91389
7.91257
7.91257
7.73947
7.73947
7.88402
7.88402
7.89398
7.89398
7.84041
7.84041
7.81723
7.81723
7.8597
7.8597
7.9116
7.9116
7.62456
7.62456
7.54786
7.54786
7.91096
7.91096
3.95415
3.95415
7.92761
7.92761
7.00549
7.00549
7.90849
7.90849
7.48363
7.48363
7.42286
7.42286
7.87463
7.87463
7.22118
7.22118
7.13786
7.13786
6.98216
6.98216
7.60405
7.60405
7.61422
7.61422
7.90643
7.90643
2023.35
2023.35
7.85184
7.85184
7.88465
7.88465
7.61054
7.61054
7.71381
7.71381
7.77895
7.77895
7.44059
7.44059
6.56491
6.56491
7.10008
7.10008
7.84779
7.84779
7.59242
7.59242
7.89361
7.89361
7.87255
7.87255
7.02298
7.02298
7.10461
7.10461
7.81227
7.81227
7.82107
7.82107
7.89834
7.89834
7.90095
7.90095
7.83776
7.83776
7.91147
7.91147
7.90316
7.90316
2079.87
2079.87
7.78431
7.78431
7.0174
7.0174
1990.11
1990.11
7.92072
7.92072
6.58704
6.58704
7.88579
7.88579
7.53019
7.53019
7.83543
7.83543
7.16137
7.16137
7.57039
7.57039
7.75726
7.75726
7.80737
7.80737
7.50616
7.50616
7.4057
7.4057
7.89619
7.89619
6.1237
6.1237
7.07104
7.07104
7.89958
7.89958
7.90817
7.90817
7.87897
7.87897
7.77216
7.77216
7.6677
7.6677
7.589
7.589
7.0538
7.0538
7.90765
7.90765
2082.41
2082.41
7.8619
7.8619
7.96754
7.96754
7.90667
7.90667
7.47428
7.47428
7.84217
7.84217
260.959
260.959
7.56651
7.56651
7.8894
7.8894
7.4344
7.4344
7.10064
7.10064
7.87575
7.87575
-0.410481
-0.410481
1.39861
1.39861
1.39861
7.10494
7.10494
6.33963
6.33963
7.70289
7.70289
7.90544
7.90544
7.27189
7.27189
2045.32
2045.32
7.78969
7.78969
7.89854
7.89854
7.8513
7.8513
7.90104
7.90104
7.90481
7.90481
7.8969
7.8969
7.42999
7.42999
7.09376
7.09376
7.90335
7.90335
7.48775
7.48775
7.16205
7.16205
6.77935
6.77935
2043.67
2043.67
7.71568
7.71568
7.14128
7.14128
7.64506
7.64506
7.68355
7.68355
7.82726
7.82726
7.89042
7.89042
7.88097
7.88097
2058.05
2058.05
2041.18
2041.18
7.93585
7.93585
1994.87
1994.87
7.1161
7.1161
1988.6
1988.6
7.88987
7.88987
1922.77
1922.77
7.90174
7.90174
7.86339
7.86339
7.58359
7.58359
7.81319
7.81319
7.22591
7.22591
7.86802
7.86802
7.75405
7.75405
7.10366
7.10366
7.88599
7.88599
7.88339
7.88339
7.88102
7.88102
2029.09
2029.09
7.90301
7.90301
6.07624
6.07624
7.81699
7.81699
7.69415
7.69415
7.86001
7.86001
7.13537
7.13537
7.90195
7.90195
7.38896
7.38896
7.51967
7.51967
7.90516
7.90516
2.71214
2.71214
7.66198
7.66198
121.218
121.218
7.86759
7.86759
7.8939
7.8939
7.8389
7.8389
2021.57
2021.57
7.26655
7.26655
7.50084
7.50084
7.83306
7.83306
7.90262
7.90262
7.78366
7.78366
7.56189
7.56189
7.80868
7.80868
6.18821
6.18821
7.89647
7.89647
7.55286
7.55286
6.5589
6.5589
6.4922
6.4922
7.8412
7.8412
2014.1
2014.1
7.50298
7.50298
7.85441
7.85441
2052.35
2052.35
7.88491
7.88491
7.90186
7.90186
7.73484
7.73484
7.54323
7.54323
7.76583
7.76583
2034.19
2034.19
7.07952
7.07952
7.60549
7.60549
7.20338
7.20338
7.89342
7.89342
7.12116
7.12116
7.83011
7.83011
7.39142
7.39142
7.43463
7.43463
7.93264
7.93264
7.84953
7.84953
7.14656
7.14656
7.8989
7.8989
7.75131
7.75131
7.76736
7.76736
7.89721
7.89721
7.9009
7.9009
7.23738
7.23738
7.87593
7.87593
7.51709
7.51709
7.65471
7.65471
7.87179
7.87179
7.80593
7.80593
7.86568
7.86568
7.52716
7.52716
7.89207
7.89207
7.66242
7.66242
1545.46
1545.46
1545.46
6.95904
6.95904
7.10762
7.10762
7.8818
7.8818
7.85091
7.85091
1587.52
1587.52
7.49128
7.49128
7.88553
7.88553
7.79241
7.79241
7.88846
7.88846
7.53773
7.53773
7.89456
7.89456
7.89911
7.89911
7.19476
7.19476
7.49788
7.49788
7.87829
7.87829
7.89745
7.89745
7.45409
7.45409
7.69807
7.69807
7.14291
7.14291
7.47737
7.47737
7.89502
7.89502
7.85423
7.85423
7.89796
7.89796
1969.22
1969.22
7.39878
7.39878
7.89883
7.89883
7.16281
7.16281
7.84222
7.84222
7.22155
7.22155
7.30542
7.30542
7.64024
7.64024
7.58772
7.58772
7.36814
7.36814
7.91213
7.91213