/*--------------------------------*- C++ -*----------------------------------*\
  =========                 |
  \\      /  F ield         | OpenFOAM: The Open Source CFD Toolbox
   \\    /   O peration     | Website:  https://openfoam.org
    \\  /    A nd           | Version:  8
     \\/     M anipulation  |
\*---------------------------------------------------------------------------*/
FoamFile
{
    version     2.0;
    format      ascii;
    class       surfaceScalarField;
    location    "0.2";
    object      phi;
}
// * * * * * * * * * * * * * * * * * * * * * * * * * * * * * * * * * * * * * //

dimensions      [0 3 -1 0 0 0 0];

internalField   nonuniform List<scalar> 
2805
(
-0.00324222
0.00122762
0.00201461
-0.00115716
-0.00208507
-0.00165995
0.00172009
-6.014e-05
-0.00153287
-0.000127076
-0.00186245
0.000705294
-0.000916269
-0.000616605
-0.000805998
-0.000110271
0.00033544
-0.00114144
-0.000192886
0.000528326
0.000384576
0.00133551
0.00121071
-0.0014036
-0.00011014
0.00132085
0.00400485
-0.00133408
-0.00267077
0.00131865
-0.00142879
-0.000436206
-0.000359974
0.00079618
-0.00073148
0.000295274
0.000971592
0.00303325
-5.19761e-05
0.00137063
-0.00122237
0.00244998
0.00102861
-0.00108059
0.0020747
0.00197496
-0.00404966
0.00106965
1.54246e-05
-0.00108508
0.000312991
-0.000395479
8.24881e-05
-5.39426e-05
0.00108256
0.000161308
0.000908347
-0.00020263
-0.0005896
0.000792229
0.000843047
-0.00104568
-0.000939733
-0.00148433
0.00242406
0.000793147
-0.000407241
-0.000385906
-0.000153234
-0.00106078
0.00121401
-0.000441372
0.000754363
-0.000815671
0.000976978
0.00027307
0.00120012
-0.00147318
0.00243343
-0.00146184
-0.00200702
0.00106729
-0.00113501
0.000739528
0.000748683
-0.00156435
-0.000330736
0.00112388
0.000966013
-0.00111925
0.00199206
0.0010925
-0.000343817
0.00380564
-0.00173093
0.000502901
0.000479217
-0.000396728
-9.15283e-05
0.000930735
-0.000839207
0.00481802
9.5933e-05
-0.00491395
0.00216552
-0.00207288
-9.26442e-05
0.00112982
-0.000235794
-0.000894024
0.00193828
-0.00315145
0.00121317
-0.00304611
0.00170338
0.00134273
0.00164599
-0.000307974
-0.00133801
0.00247156
-0.00114666
0.00116208
-0.000394951
0.00204094
0.00321733
-0.00340625
0.000188919
-0.00162244
0.000943156
0.00103829
-0.000449571
0.00148786
-0.000539748
4.2999e-05
0.000496749
0.000932487
-0.000453271
-0.000317472
-0.000414008
0.000881638
5.08488e-05
-0.00114678
0.000760867
0.000385918
0.000874094
-0.00126905
-0.00164432
0.00140852
-0.000565441
0.000511705
5.37354e-05
-0.00071372
-0.000421287
0.00441078
-0.00175542
0.00144745
-0.000945155
0.0011438
-0.000198643
-0.000743868
0.000426396
-0.000180772
-0.00144496
0.000384179
-0.000917509
-0.00052745
0.00120576
-0.00149214
0.00028638
-0.000674308
-0.000970011
-0.00142384
0.00050633
-0.00145221
0.000558184
-0.000873784
-0.00121221
-0.000239112
0.00145133
0.000834642
8.40504e-06
-0.00105095
0.00050611
0.000544838
0.00303422
-0.00105926
0.00228768
0.000369412
-0.00108313
-0.0019339
-0.000886463
0.000526489
-0.00110783
0.00106826
-0.00201341
-0.000635944
7.05036e-05
0.000615853
0.000218789
0.00331326
-0.000977685
-0.000232351
0.00121004
-0.00183324
0.0029015
-0.000371857
0.00124595
-0.00170199
0.00102768
4.58376e-05
-0.00125805
-0.000271602
-0.000268146
0.000560372
0.00064539
0.00165246
-0.000274777
-0.00137768
0.00120097
0.000227542
-0.000499144
0.000602057
1.37962e-05
-0.000747753
-0.000229931
-0.0015611
0.00108659
0.000474507
0.00442229
-0.00442974
7.44815e-06
-0.00232821
0.00158045
0.000404588
-0.000361589
0.00308091
-0.00198593
0.000283942
-6.31501e-05
0.00447393
-0.00219319
0.000459064
-0.00108001
0.00062095
-0.000944518
-0.00050769
0.00103328
-0.00209254
0.00159232
0.000677732
-0.000382459
0.00044138
0.000474398
-0.000915779
-0.00191453
0.0016421
0.000645571
-0.00383133
0.0036492
0.000182125
-0.00234628
-0.000980133
0.000162308
0.000349397
0.00136591
-0.00164475
0.000278839
0.000353384
-0.00184553
0.000219673
-0.00164351
0.00301776
-0.00114644
0.00307824
-0.00193179
-0.00126044
-0.000725498
0.00414752
-0.00226363
0.000940879
0.00132275
-0.000591884
0.00367253
-7.04497e-05
-0.000159482
-4.41855e-05
0.00116807
-0.000921962
0.000868019
-0.0011259
-0.000525377
-0.00058156
0.00136296
-0.00136296
-0.00547795
0.00547795
0.00199672
-0.000404402
-0.00189311
0.000746667
-0.0009623
0.00170417
4.74051e-06
0.000399848
0.000706033
-0.000264653
0.000113546
0.000392564
-0.00383133
0.00290559
-0.00255221
0.00414512
2.3993e-06
0.00138011
-0.000870185
-0.000774561
0.00326554
0.000383667
-0.000209611
-0.0013282
6.77601e-05
-0.000807542
0.000129296
0.000678246
-0.000373137
-0.000706877
-0.00197725
0.00374072
-0.00390086
6.95339e-05
-0.000600237
0.000487298
0.000112939
0.00020839
-0.000784764
-8.54207e-05
0.00106317
0.00220237
-0.00109153
-0.000822998
0.00285828
-0.000319388
0.0015195
0.00234809
-0.000967974
-0.00126276
-0.000298344
0.00033391
-0.00214782
0.00320603
-0.000218592
-0.00298744
0.000840878
-0.00158627
0.00138763
0.00115124
-0.000411716
0.00391318
-0.000172466
0.000757043
-0.00151314
0.000756099
0.000207297
0.000470436
-0.00139796
0.000826774
0.000571191
-0.000180285
-0.00060448
-0.00123043
-0.00192101
-0.000338998
-0.00173388
0.000517191
0.0023884
-0.00109334
0.000527446
0.000565898
-0.00181703
-0.00121095
0.000504076
0.000568932
-0.00153123
0.00120665
-0.00107261
-0.000255584
0.00294521
-3.80727e-06
-0.000176477
-0.00390086
-0.000895212
0.000576306
0.000318906
0.00230887
0.00089716
0.00181989
0.000488984
0.00389859
-0.00300143
-0.00695113
0.00047908
-0.00027069
-0.00124368
0.00245033
-0.0003363
0.00326068
-0.00031547
0.00352691
-0.00300972
-0.000848035
0.000940879
-0.00397026
6.93999e-05
0.00286573
-0.000738164
0.00109997
-0.000361802
0.000326489
-0.000330296
-0.000367766
0.00130627
0.000342561
-0.000337821
0.000350341
0.002017
-0.00107316
-0.000570348
-0.00042422
-0.000262704
0.00039366
0.000213828
-0.000951992
0.00104673
0.00078337
-0.000207065
-0.000605029
-0.000467583
0.00116914
-0.00133014
0.000160996
0.000405822
-7.93335e-05
0.00116914
0.00272945
-0.0020835
-0.00132275
0.000364978
0.000157734
-0.000522712
0.000306746
0.000568054
0.000215316
0.000129296
0.0010566
4.33667e-05
0.00250782
-0.000490817
0.000796169
-0.000402509
-0.00397026
0.000575283
-0.000367986
0.0020601
-0.0023964
0.00110259
-4.5995e-05
0.000450573
0.00307633
0.00160898
-0.000678246
0.00205347
-0.00119169
0.00223841
-0.00112013
-0.000891635
-9.36157e-05
-0.000246019
-0.00264922
-0.00132105
0.000588145
-0.000182322
0.00259504
-0.00112085
-0.000696179
-0.000680483
0.000894312
0.000501838
0.000290392
-0.000289036
0.00262259
-0.00233355
6.47631e-05
0.00131613
-0.000539717
0.000619691
-5.51655e-05
0.000389076
0.000414631
0.000383135
0.000593844
0.000662784
-0.00119023
0.00122158
-0.00295252
0.00113546
-0.0014338
-0.00178833
0.00127032
0.00407158
-0.00290244
-0.00048669
-0.00339445
-0.00168766
0.00183621
-0.000148546
-5.01257e-05
0.000415104
0.000674334
-0.000913447
0.000809621
0.000698153
-0.000130099
0.00259744
0.0030362
-0.00530903
-0.00264922
-0.00047821
0.000494566
9.35788e-05
0.00212501
-0.00147944
-0.00100191
0.000396882
-0.00307824
0.00042902
0.00195352
-0.000637389
0.00177107
0.000887653
-0.000267962
-0.000911641
-0.000207606
0.000499939
0.000198214
-0.00085544
0.000898807
-0.000749809
-0.000218215
0.000705513
0.000166557
-0.00084704
0.00390403
-0.00345346
6.22948e-05
3.88719e-05
0.00219493
0.00123739
-0.000134797
-1.29318e-05
0.000355493
-0.00107005
0.00187967
-0.00119818
0.00132034
-0.000122154
0.00362538
-0.0024038
0.00104342
0.000193975
0.000934927
-0.00110191
-0.00095625
0.000134773
0.00057126
0.00067203
-0.000177465
0.00107056
-8.80306e-05
-0.000982527
-0.00137643
0.000954618
0.000216382
0.000883474
0.00080832
-0.000113914
-0.000248856
0.00129143
0.00278015
0.00202246
0.000428729
-0.000646944
-0.000976519
-6.91571e-05
0.00161833
-0.0011964
-0.000421924
0.0014033
0.000638024
-0.00124721
0.000242901
-0.00124481
0.000639798
-0.000295413
0.000349148
0.000717319
0.000353238
0.000799079
0.00103445
-0.0016048
0.000617611
-0.000117673
0.000446624
0.000776116
3.2204e-05
0.000419277
0.000252753
0.0017545
0.000288189
0.000134259
0.000751595
0.000156751
0.000715192
0.00318884
0.000748675
-0.000582118
-0.000143647
0.000570043
0.000643991
-0.000294593
0.000539029
-0.000404256
9.44421e-05
0.000408459
-0.00052186
0.000634799
0.000991908
-9.31016e-05
0.00271628
0.00142885
-0.00152246
-0.00122627
0.00261183
-0.00138556
0.00151542
-0.000631945
0.00201141
-0.00107648
-0.00114902
0.000777161
0.000395335
0.000222277
-0.000707686
0.000746558
0.000857111
0.000607034
-0.00019193
0.000477577
0.00143903
0.000663565
0.00287326
-0.00158183
0.000647305
-0.000228028
0.000869695
0.00136009
-0.000316677
0.000451984
-0.00092633
0.000110474
0.000464808
-0.000287299
0.000506088
-0.00138763
0.000407493
4.09886e-05
0.000214062
0.000391257
0.000202586
0.000373489
0.000270502
0.000229842
-4.95609e-06
0.00125475
0.000269661
0.00341995
0.000932216
0.000427877
-0.000155786
0.000311622
0.000214538
0.00147124
0.000892435
-0.000175116
0.00104769
0.000575357
-0.000226209
0.000497507
0.000372187
-7.14418e-05
0.000361833
0.000548009
-0.000698488
0.000941389
0.000187585
-0.000929614
-0.000963496
0.00171203
-0.00164974
0.00343424
-0.00271905
-0.000578296
0.00106317
0.000530515
-8.38911e-05
0.00174844
-0.00067691
-0.00107153
0.000280763
0.000337017
0.000527
-0.000131665
0.00052686
0.000365576
0.000490375
0.00102504
0.000980418
0.00030477
0.000342535
0.00025744
-0.000270372
0.00175612
-0.00108179
0.000808052
-6.14939e-05
0.000937386
-0.000333572
-0.000603814
-0.000963267
0.000714951
0.00151779
0.00135547
0.000834989
-0.000737181
0.000223193
0.000254383
0.00109742
-0.000240312
-0.00112509
-0.000251348
-0.00108344
0.000875829
0.000677537
-1.39721e-05
-0.000401611
0.000346446
0.000338584
0.000559718
2.74868e-05
0.000805146
-0.000342481
-0.000462666
0.00075026
0.000104477
0.000780746
0.00309985
-0.00247337
-0.000626472
0.00135261
0.00042578
0.0010864
-0.000136917
0.000351455
0.000588567
0.000594357
0.000111156
0.000579438
-0.000308936
0.00029517
0.000231829
0.000107234
0.000925536
0.000513291
-0.000201669
0.000684498
0.000502421
0.000411103
0.000593278
-0.00129177
0.000224917
0.000795437
0.00146132
-0.000529103
-0.000592613
0.000633601
0.000476398
0.000328748
-0.000196129
0.00042597
0.00175542
-0.00146723
0.000452083
9.59252e-05
0.00185857
-0.000903951
0.000211745
0.000424647
0.00300959
0.000287083
0.000535557
-0.000254794
0.000576705
-0.000271935
0.000715217
-0.000543726
6.34661e-05
0.000273551
0.000722682
-0.000195823
0.000782648
-0.0010315
0.000784409
0.00101223
0.000505563
0.000232961
-0.000993335
0.000812564
0.00111417
-0.000623797
0.000368492
0.000210946
-0.000284678
0.000472263
0.000422267
0.000327993
0.000315957
0.000226621
0.000438111
0.00031785
-0.000212175
0.000316651
0.000500533
-0.000390059
-0.000306551
0.000334037
-0.000728204
0.000696045
3.98952e-05
0.000380202
-0.00107354
0.000899117
-0.000184167
0.00175815
-0.000923164
0.000172363
0.000484865
-0.00014628
0.000139281
-0.000256734
0.000685464
0.000658805
9.18854e-05
0.00244187
0.000265037
0.000160743
0.00229607
-2.69783e-05
0.000284418
-0.000673383
0.000611889
-4.86283e-05
0.000273545
0.000572739
-7.03179e-05
0.00120393
-0.000423188
0.00172027
-0.00172523
0.000676367
0.000283195
0.000626419
0.000491279
-0.000204197
0.000236486
0.000360962
0.00072628
0.00113748
0.000141292
0.000638674
-0.000309926
-3.97817e-05
0.00189673
-0.00133701
0.000674831
0.000398391
0.000608607
0.000940089
-0.00109587
-0.00154779
0.00109452
0.000224922
0.00019075
0.000385955
-0.000404868
0.000616614
0.000381988
0.000732185
0.000376916
-0.000806503
0.00117591
0.0022831
-0.00185845
-0.000249471
0.000476092
0.000670529
-0.000218725
0.00123096
0.00012275
0.0001951
0.000414855
2.32561e-05
0.000457377
-0.000714111
-0.00177318
0.000899401
7.05381e-05
0.00155673
-0.000772322
-0.000244769
0.000284664
-0.000953606
-0.00012983
-0.000181768
0.000942635
-0.000294835
0.000505781
0.00115791
-0.000564635
7.18828e-05
0.000417385
-0.000101428
0.000104277
0.000582271
-0.00020207
-0.000123127
0.000262408
0.000130883
-0.000396549
0.000460749
-0.00179876
0.000198013
0.00048745
-0.000117506
0.000283493
0.000233806
-0.00242382
0.000271105
0.00136538
-0.0014167
0.000429494
-0.00100578
-0.000170957
0.000344537
0.000633567
-3.78334e-06
0.000150418
0.000441527
-0.000158332
0.0017924
-0.00168517
0.000442556
-0.000206071
-0.00133969
0.000927978
-0.000422975
0.00100332
-0.00034451
0.000852554
-0.000378156
0.000273537
8.74248e-05
-0.000209312
0.000381676
0.000505538
0.00023733
-0.00138113
0.000112086
-0.000678663
-0.00075541
0.000571244
-4.00579e-05
0.000579087
0.00185847
-0.00118211
-0.000512685
1.67029e-05
0.00020822
0.000272346
0.000347153
0.000923165
-0.000920383
-0.000899362
0.000580128
0.000193086
-0.00144942
0.00119807
0.000181257
0.000464181
0.000152432
-0.000988332
-0.000160686
-0.000143521
0.000491316
-0.000300566
-0.000914889
0.000733121
0.000482371
-0.000105455
-0.000504476
0.000617012
0.00187717
-0.00164421
-0.000552924
-0.00086378
-0.00043641
0.000396352
0.000211803
0.000556694
-0.00016378
-0.000987227
0.000259023
0.000296793
0.00033961
0.000166171
0.000596605
0.00033482
0.00194828
0.00102502
-0.000912931
0.000712142
0.000230493
0.00132556
-0.000650733
0.000521465
-0.000477452
0.000155713
0.00012778
0.000525815
0.000144714
-9.14157e-05
-0.00127351
0.000876963
0.000130298
0.000485348
-0.000757022
0.000887905
-0.000274142
0.000415434
-0.00017163
0.000243513
-0.00128843
5.99255e-05
0.000280301
3.66855e-05
9.0778e-05
0.00079237
0.000262868
2.17957e-05
0.000553242
0.000254065
0.000388895
-0.000117791
0.000371687
-2.71496e-05
-5.80461e-05
0.000208464
0.000194874
-0.000221852
-0.000567595
0.000527814
0.000243137
1.66814e-05
0.000483851
0.000259085
0.000509307
-0.000275502
0.000230563
0.00032467
-0.000345534
0.000403403
-0.000166073
-0.000344417
0.00049685
0.000151937
0.000150173
9.55326e-05
-0.00098197
-0.00140586
0.0007272
0.000696525
0.00167325
-0.00103968
0.000197332
-0.000102325
6.19107e-05
0.000149892
0.000107534
0.000470661
-0.000198316
0.000266232
0.000264465
3.23284e-05
0.00194609
-0.0015166
0.000853102
-0.000157057
-1.09014e-05
0.000491143
0.00103135
-0.000332875
0.000437152
-0.001396
0.000496637
-0.000976193
0.000812413
-0.000852444
0.000507933
-0.0002812
-0.000277783
0.000443953
0.000423196
-0.000241939
0.000189691
0.000530669
0.000399067
-0.000205982
0.000891376
-0.000285337
-0.000606039
0.00112883
-0.000548706
-0.0005289
0.000328193
0.00056182
-0.000945035
-0.000109753
0.000200531
0.00016489
-0.000641489
0.000497968
-8.82878e-05
0.00164985
-0.00157931
0.000237315
0.000169367
7.37702e-05
0.0018936
-0.00137214
-0.000348389
0.000408315
0.000199769
4.3744e-05
0.00156909
-0.00122012
0.000299736
0.000221565
0.000336757
-8.2692e-05
9.87105e-05
0.000478101
0.000404907
-0.000124606
0.00019516
-0.000668799
0.000218966
0.000477344
0.000414033
-8.94763e-06
0.000159121
0.000360869
-0.000130306
0.00038572
0.000111129
-0.000113675
0.0019954
0.000129606
-3.53177e-05
-0.000214085
0.000344382
0.000301883
-0.00107011
0.000724579
8.25591e-05
-0.000407493
-0.000342316
-0.00105229
0.000139356
0.000378528
-4.37084e-05
0.001461
-0.000907755
0.000194797
0.000666793
-0.000903691
0.000238115
0.000665576
0.000201696
0.000145413
0.000140944
0.000157128
-1.12871e-05
0.000314149
0.000129805
3.73308e-05
-0.000723482
0.000368759
-0.000171426
0.000377008
-0.000750727
0.000312444
0.000438283
0.000375817
-0.000634799
0.000745955
0.000326589
-6.03571e-05
-0.000257699
0.000206591
0.000421314
8.92642e-05
0.000100427
-3.49648e-05
0.000229839
0.000407556
0.000191548
-0.000881225
0.000689676
0.000546947
-0.00105713
0.000927297
-0.000752552
0.00011012
-0.00103973
0.000100064
0.000906729
-0.00107769
0.000162777
0.000416522
-0.00039984
0.00173091
-0.00123977
0.000163034
-0.000734903
0.000646616
-6.08538e-05
0.000159564
0.000245818
-8.5024e-06
-0.00112157
0.000592665
-0.000143889
0.000187633
-0.000262593
0.000370127
5.66425e-05
-0.000255433
0.000742884
0.000317415
-9.84485e-05
-0.000289368
0.000963331
-0.000455397
0.000201984
9.8267e-05
-0.000396987
0.000201726
-2.80951e-05
0.00168577
-0.00153383
0.000510928
1.97406e-05
-0.000843369
-0.00128376
0.000886325
-0.00097774
4.70929e-05
0.000214681
6.88403e-06
0.000726841
-0.000228873
0.00068787
-6.81107e-05
0.000408359
-0.00029723
0.000445641
0.000187109
0.000170066
3.16299e-05
0.000358771
0.000414625
-0.00202532
-0.000668762
0.00269409
0.000203393
0.000412656
-0.000247767
-0.000174395
2.52593e-05
0.000115685
-0.000976444
0.000858938
0.00172322
-0.00142134
0.00047295
-0.000148104
8.17888e-05
0.000334309
-0.000139513
0.000185461
0.00207503
-0.00137851
0.00125667
-0.000778566
0.000432436
0.000750726
-0.000911412
0.000386504
-0.000191344
-0.000835346
0.000577647
-0.000170074
0.000299878
-0.0010992
0.000430396
0.000125686
-0.000315744
-0.000600034
-0.000304771
0.000342102
0.000246381
-0.000548766
0.00043509
-0.00050653
-0.000205734
0.000362863
0.000348912
0.000161563
0.00038204
-0.000236627
0.000162883
-0.000188731
-0.000305807
0.000388366
0.00167942
-0.00130241
0.000341081
-0.00013449
-9.75271e-05
0.00015417
0.000102957
6.00776e-05
6.20371e-05
0.000106462
-0.000268815
9.87413e-05
0.00153316
-0.00111185
0.00231074
-0.00231074
-0.000868995
0.000911412
-0.000874727
0.000165121
2.25117e-05
-2.41759e-05
0.000122443
0.000976098
0.000328873
7.94856e-05
0.000172005
0.000134587
-0.000218262
0.000318326
0.000115427
0.000918484
0.000338151
-0.000175374
-0.000878217
0.00048123
0.000189387
6.43199e-05
0.000272899
-7.11725e-05
2.41024e-05
0.000283885
-8.19019e-05
-0.000999713
0.000276231
0.00116573
-0.00120105
0.000113225
-7.58156e-05
0.00017445
0.000998269
-9.15403e-05
-0.0003659
0.000337805
0.000297673
-0.000110564
-0.000569317
9.15089e-05
-0.00030057
0.000510976
0.000293395
0.000138737
0.000116005
-0.000417137
0.000301132
0.000222043
-3.6582e-05
-5.88576e-05
0.000258082
0.000512357
0.000342316
-0.00145014
-1.84587e-05
-0.000868453
0.000766128
0.000149737
8.16165e-05
-0.000191362
0.000146685
-0.00018165
4.67467e-05
7.89392e-05
0.00015816
0.000501632
0.000132417
0.000126236
0.000161327
2.3651e-07
0.00155613
-0.00119736
0.00530903
-0.00331363
0.000467166
-5.06448e-05
0.000815982
-0.000370341
0.000360585
0.00106071
-0.000646089
-0.000254803
0.000336592
-2.37984e-05
-0.000350105
0.000397198
-0.000653695
0.000464964
0.00109729
0.000149396
-0.000885367
0.000132816
-6.10116e-05
0.000123049
0.000106824
-0.000618734
0.000389861
-0.000869235
0.000362706
-0.000122434
0.000144945
-0.000183643
3.1736e-05
-4.91472e-05
0.000282148
0.00210508
-0.00210508
-0.000609137
0.000309453
-0.00014657
-0.000388005
6.14313e-05
0.000140141
0.00120416
-0.0010977
-0.000212778
3.82614e-05
0.000105854
2.87324e-05
-0.000100925
0.000854578
-0.000753653
0.00131953
-0.000970622
-0.000142719
0.000253715
0.000176629
-4.62403e-06
0.000124745
6.35227e-05
1.39738e-06
9.01115e-05
-0.000263187
0.000342673
0.000259608
-8.51574e-05
0.000464995
-0.000179852
0.000278593
0.000342182
-0.000226755
0.000158171
0.000134079
0.00116658
-0.000977193
-0.00174043
0.00384551
0.000207687
1.56156e-05
0.000874727
-0.00073537
0.000158666
0.000106091
0.000149043
-0.000693117
0.000392547
-0.000287311
0.000351631
-0.00026986
0.000293962
8.03364e-05
0.000322464
-0.000183727
0.000345141
-0.000231916
-7.9332e-05
-0.000228153
-0.000215493
0.000297109
0.000257335
0.000485549
0.00139395
-0.00110056
0.000288212
-0.000138475
-0.000540359
-0.000411633
-0.000809303
0.000239986
0.000278057
-0.000119897
0.000391351
5.74158e-05
4.94084e-05
-8.74803e-05
0.000119216
-0.000446597
0.00111943
-0.000861353
0.000244148
-9.47525e-05
3.1094e-06
3.55683e-05
-2.64254e-06
-9.51598e-06
0.000186576
-3.98913e-05
0.000138098
6.84682e-06
0.000331143
-0.000204907
0.00154503
4.92806e-05
0.000133475
-0.000311438
0.00028764
0.000195343
-5.52018e-05
-3.38257e-05
9.52571e-05
0.00031049
-0.000178073
8.61481e-05
0.000893614
-0.000203937
-0.000852305
0.0007042
7.89944e-05
0.000179557
0.000131487
0.000196595
0.000146154
-2.14089e-05
9.57098e-05
6.88845e-05
0.000286317
5.63564e-05
0.000255794
8.93475e-05
7.5942e-05
0.000369638
5.62857e-05
-0.000690555
0.00030255
1.64567e-05
6.31006e-05
0.000104485
-0.000322092
0.000360353
-0.000790135
0.000878836
-0.000518251
0.00055964
0.000333974
9.99189e-05
6.17166e-06
-0.000298008
-0.000247593
0.000311116
0.000222135
-6.34688e-05
0.000232747
0.00108855
-0.000806397
0.000136977
-2.34788e-05
0.000105674
1.69891e-05
6.33473e-05
0.000685483
-0.000295622
-0.000406952
0.000356307
0.000315142
0.00108031
0.000142241
0.00100358
-0.000749869
0.000245059
-9.60161e-05
0.00010059
0.000286003
-0.000151924
-0.00113561
0.000628186
0.000164185
-1.74758e-05
0.000117923
9.92269e-05
-0.000725429
0.000116293
-0.000485443
9.09519e-05
0.000292422
0.000670551
6.63975e-05
-0.0003444
0.000265068
2.95392e-05
-0.000320551
0.000105583
4.95163e-05
-6.01897e-05
9.5758e-05
0.00120145
-0.000993759
-0.000105426
0.000112273
1.37901e-05
0.000125162
7.85101e-05
-0.000531873
0.00034823
-0.000549423
0.00032127
5.86715e-05
2.74766e-05
0.0010294
-0.000484685
3.50673e-05
-0.000140523
0.00010793
-0.000210398
0.000289392
0.000146573
-1.30981e-05
-5.676e-05
0.000271372
-0.000175663
-8.61761e-05
-0.000179784
0.000142231
-0.000361927
0.000359284
-1.53947e-05
7.16804e-05
0.000100888
-0.000650418
0.000203821
-0.000274306
0.000323586
-0.000347868
6.48432e-05
0.000242487
-0.000138002
0.000123094
0.000258667
-0.00012718
0.00073537
-0.000602555
-0.000215791
0.000278891
0.000206083
-0.000100409
4.79526e-05
0.000874385
-0.000965925
0.000212193
-7.52156e-05
0.000165798
-6.52077e-05
-0.00138904
0.00151864
0.000143793
-0.000360768
0.000216975
-0.000238886
0.000295242
0.000862901
-0.000666306
0.000123107
3.68099e-05
-0.000150744
0.000110853
0.000124915
-3.39634e-05
0.000263278
-0.000187336
0.000965925
-0.00115729
-0.000874385
0.000815527
2.34067e-05
4.29908e-05
0.000116177
-1.57368e-06
0.000106743
-0.000549327
0.000251319
6.0975e-05
8.6086e-05
-7.57592e-06
0.000262
-0.000245543
-5.99949e-05
0.00115729
-7.89375e-05
9.27276e-05
-0.0010896
0.000506027
0.000583577
-0.000272622
0.000255147
0.000116423
-4.14968e-06
0.000315517
-0.000226169
1.68206e-05
-0.000228057
0.000303313
-0.000204086
-0.000750726
0.000444925
5.08834e-05
0.000723526
-0.000408384
6.68245e-05
-4.03701e-05
7.54374e-05
0.000103325
-9.57e-05
-0.000242362
0.000291879
0.000205275
0.000868533
-0.000635786
1.37983e-05
0.000229721
-0.000104559
6.80806e-05
-0.000272772
0.000113032
4.74877e-05
0.00028585
-0.000180267
-0.000302111
0.000331651
6.53886e-05
5.0506e-05
3.13104e-05
6.21359e-05
0.000966992
-0.000849069
0.000584924
-0.000381102
5.97074e-05
3.65289e-05
9.94803e-05
-0.000292259
0.000235499
5.1062e-05
1.37812e-05
0.000272772
-0.000269663
-5.4463e-06
5.33989e-05
5.21226e-05
-0.000815527
0.00076638
0.000652902
0.000654303
-0.00130721
0.000102541
-2.67663e-05
2.1475e-05
-0.000245285
5.79484e-05
-4.76672e-05
-0.000581774
0.000286153
0.00026514
0.000264248
-0.000156319
0.000314831
0.00035572
0.000180658
-5.75509e-05
-2.76502e-05
0.000269663
-0.000200779
3.75446e-05
-0.000652902
-0.000347153
0.00100005
-0.00051896
0.000171091
0.000105443
0.000715235
-0.000614346
4.3486e-05
-0.000233545
0.000256626
3.86161e-05
-1.06228e-05
-0.000267641
7.02322e-05
0.000200612
-8.44354e-05
-0.000812101
0.000608164
-0.000631534
7.71434e-05
8.17641e-05
-3.71126e-05
-0.000265508
0.000302318
1.10835e-05
0.00015148
-4.0627e-05
0.000231395
-0.00017042
0.000602555
-0.000486262
2.08169e-05
3.00666e-05
-9.1238e-05
8.70884e-05
-5.86899e-05
7.55105e-05
0.000200779
-5.85372e-05
0.000203205
-0.000136381
1.48952e-06
-0.000107901
0.000756864
-0.00076638
-0.000221945
0.000269433
0.000927027
-0.000816907
1.67476e-05
0.000169986
-0.000101905
-0.000298035
0.000202335
8.39817e-05
-0.000333324
0.00033175
9.60535e-05
-0.00020156
0.000252066
0.000239913
-0.00013317
0.000134372
-6.89835e-05
-2.811e-05
5.94204e-05
0.000452728
-0.000553653
4.89292e-05
0.000256016
-0.000198068
9.89037e-05
-3.91963e-05
0.000459828
-0.000103521
-0.000438021
0.000209963
2.6371e-05
0.00309013
0.000885521
-0.000244009
0.000280537
3.4598e-05
0.000696878
-0.000491604
0.000342316
0.00012193
-1.86049e-05
2.5289e-05
6.55208e-05
-1.33983e-05
0.000800379
-1.67326e-06
-0.00017288
-6.25356e-05
5.85372e-05
8.36942e-05
6.10919e-05
-4.13046e-06
4.16751e-05
9.42796e-05
-0.000606575
0.000198191
3.40711e-05
-0.000240596
4.25282e-05
2.54246e-05
-0.00022724
0.000265856
8.35941e-05
2.98356e-05
0.000319305
0.000293564
-0.000223332
0.000214104
-0.000111563
0.000465532
-0.000294441
8.44298e-05
-0.000287558
0.000309033
3.55266e-05
7.95942e-06
0.000172396
-6.69532e-05
3.27849e-05
0.000745955
9.39291e-05
3.3605e-05
5.29679e-05
3.24668e-05
0.000264769
-0.000183005
0.000670688
0.000730423
-0.000668287
0.000795166
-0.000235526
0.00193179
-0.00100477
8.79602e-05
0.000281661
-0.000204518
2.99201e-05
0.000509828
2.59362e-05
-0.000286247
0.000134084
0.000152163
0.000248308
-0.000258931
2.63245e-05
2.48258e-05
-0.000320423
-7.11937e-05
7.26832e-05
-0.000118646
-0.000412121
0.00014448
-0.000267678
0.000230566
0.000560184
-0.00058695
-4.50098e-05
6.17574e-05
1.47601e-05
4.31683e-06
0.000252945
-0.000241861
-0.000202157
0.00116077
-0.00182953
0.00024472
-0.000160738
0.000257868
-0.00021534
0.000486262
-0.000386781
5.8329e-05
-8.36943e-05
0.000196726
9.81729e-05
-1.10845e-05
-0.000262653
0.000289024
0.000188006
-9.19526e-05
1.44107e-05
0.000277666
-0.000224698
2.21283e-05
6.0251e-05
0.00109501
-0.000642279
8.09335e-05
-8.39123e-05
-0.000236111
0.000270182
1.78843e-05
-0.000123898
8.32706e-05
9.9803e-06
2.46177e-05
7.95679e-05
-2.38073e-05
4.90963e-05
0.000278101
-0.000367935
0.000320268
0.000266465
-0.000208136
-5.41623e-05
6.17151e-05
0.000245584
2.02728e-05
-0.000254381
0.000279806
0.00167258
0.000953656
1.78678e-05
-0.000582396
9.07928e-05
-0.00113922
-0.000262543
0.000200008
0.000242678
3.49876e-05
7.64432e-05
0.00094431
-0.000438283
2.17569e-05
0.0002481
-0.000187849
4.17673e-05
1.79396e-05
0.000145997
-5.20681e-05
2.73384e-05
-0.000384205
-1.93706e-05
0.000222361
-0.000138767
-3.61845e-05
-5.98604e-06
7.90438e-05
-2.96181e-05
0.000351059
0.000571233
-0.000510141
0.000178179
-0.000310831
0.000309158
-0.000272772
-0.000185157
3.72263e-06
-0.000229815
0.000264803
0.000162533
-7.45729e-05
3.99634e-05
0.000910139
6.16236e-05
-1.09436e-05
3.68797e-05
1.58011e-05
-0.00049962
0.000266075
0.000258246
-0.000216479
-0.000268719
0.000286603
0.000245655
-0.000196726
0.000652902
0.000366437
-0.000221957
0.000356667
-0.000910319
2.84307e-05
7.1996e-05
-5.67344e-05
6.10513e-05
-0.000279127
0.000293887
7.87085e-05
-6.02519e-06
0.000228256
-0.000166541
9.89686e-06
7.05805e-05
0.000121978
-3.87076e-05
-0.00076638
-1.79839e-06
1.10869e-05
0.000883223
-0.000526556
6.76239e-05
-3.19775e-05
5.02313e-06
0.000241372
-0.000216547
-0.000243135
0.000159223
0.000216547
-0.000186711
0.0001988
-0.000117866
0.000386782
-0.000302352
-0.000432976
-0.000745824
0.000510299
0.000186711
-0.000153926
-0.000401959
0.000298438
0.00100477
-0.000726665
4.04078e-05
-3.84602e-05
5.28709e-05
-0.000670688
0.000562787
0.000153926
-0.000120321
0.000236422
-0.000196459
0.000120321
-8.78538e-05
-9.70544e-05
0.00331363
-0.00154984
-0.00176379
8.78537e-05
-5.79336e-05
1.36741e-05
0.000649148
-0.00203819
1.99431e-05
0.000253795
1.10081e-05
5.79336e-05
-3.16092e-05
-0.000100727
7.11087e-05
-0.000326059
0.000123902
6.00323e-05
-2.1159e-05
-0.000242194
0.000269533
1.06362e-05
-0.000274398
0.000290199
0.000175005
-9.85622e-05
0.000709706
-0.00141051
0.000700807
0.000138476
-5.94322e-05
-0.000241373
0.000261645
0.000281309
-0.000259552
-0.000137661
0.000206834
-0.00014521
0.000493776
-0.000402984
6.99099e-05
-0.00014788
0.000102692
0.000240943
3.16093e-05
-9.481e-06
-0.000180314
0.000196081
-0.000516503
6.39032e-05
-2.72071e-05
4.50749e-05
4.02926e-05
-4.31279e-05
0.000215644
-0.000175237
5.71393e-05
-1.63644e-05
-0.000280038
0.000289935
-0.000212168
0.000104912
0.000107256
0.000230278
-0.000201848
0.000406657
-0.000525303
1.91857e-05
-0.000285188
0.000296275
6.56536e-06
0.000151729
-8.11483e-05
-0.000261645
0.000265368
-0.000100048
6.13403e-05
-6.39536e-05
5.79284e-05
-0.000265368
0.000259382
0.000184633
-0.000124601
-8.1691e-05
0.000191493
1.16007e-05
-0.000498784
0.000114579
0.00029502
-1.13354e-06
9.48132e-06
8.45829e-06
6.91055e-06
-8.20126e-05
6.08536e-05
-2.90223e-06
-0.000259382
0.000240012
0.00011637
-4.64601e-05
9.67258e-06
9.98077e-06
5.31666e-05
-2.89393e-05
-0.000180294
-1.43887e-05
-0.000335839
0.000299655
5.69378e-05
5.01105e-06
0.000383751
-0.000816726
0.000293222
0.000739849
-0.000356098
-2.66812e-05
-5.29454e-05
3.94231e-05
0.000241287
0.000201848
-0.000181905
-4.85331e-05
5.35562e-05
0.000726665
-0.000485722
9.66398e-05
-3.52995e-05
0.000194188
-0.000153895
0.000213293
0.000302352
-0.000230356
0.00116737
-0.000213709
0.00012962
-6.57164e-05
-0.000302704
-0.000250428
-0.000306898
-0.000439615
3.66316e-05
-0.000325036
-0.000240011
0.000208034
0.000162405
-0.000105265
-0.000284516
6.25593e-05
0.000109176
-5.22383e-05
-8.19797e-05
5.30404e-05
1.89508e-05
5.01798e-05
4.33782e-06
-0.000160614
-0.000436995
0.00033994
-8.45807e-06
2.21322e-05
4.84714e-05
-2.1126e-05
-0.000372317
0.000355953
-6.7292e-05
5.29033e-05
-0.00067864
0.000371742
-0.000292692
0.000299257
-0.000562787
0.000425127
0.00014071
-8.75438e-05
4.34599e-05
-0.000289579
0.000288446
3.78036e-05
0.000181904
-0.000162719
9.07994e-05
-4.06196e-05
0.0003565
-0.000319868
-0.000208034
0.000164906
-9.36346e-06
0.00106294
3.85612e-05
3.55026e-07
-3.89984e-05
4.96345e-05
-7.94101e-05
4.41106e-05
3.58356e-06
0.000749231
-0.000393511
0.00331363
-5.45824e-05
5.16802e-05
0.000172477
-0.000133054
0.000120084
-7.16123e-05
0.000269779
-0.000262868
-2.63697e-05
0.000485722
-0.000272429
-0.000241287
0.000252887
-6.75413e-05
4.64153e-05
-5.74961e-05
0.000100956
-0.000252887
0.000262868
-0.000164906
0.000111961
-0.000257075
0.000109194
-0.000168342
-0.000269779
0.00027479
3.54452e-05
-1.58175e-05
7.48218e-05
-3.07112e-05
8.36989e-05
-4.51377e-05
6.77174e-05
-0.000392753
-1.46379e-05
1.85822e-05
3.25399e-05
0.000311314
-1.80924e-05
-2.21319e-05
3.18045e-05
3.42023e-05
6.07645e-06
-0.000201848
0.000162719
-0.000143768
-8.1042e-05