/*--------------------------------*- C++ -*----------------------------------*\
  =========                 |
  \\      /  F ield         | OpenFOAM: The Open Source CFD Toolbox
   \\    /   O peration     | Website:  https://openfoam.org
    \\  /    A nd           | Version:  8
     \\/     M anipulation  |
\*---------------------------------------------------------------------------*/
FoamFile
{
    version     2.0;
    format      ascii;
    class       volVectorField;
    location    "0.2";
    object      U;
}
// * * * * * * * * * * * * * * * * * * * * * * * * * * * * * * * * * * * * * //

dimensions      [0 1 -1 0 0 0 0];

internalField   nonuniform List<vector> 
1924
(
(0.774899 -1.37389 1.99828e-18)
(0.799797 -1.59925 2.63888e-18)
(0.0859528 -0.5681 2.72551e-18)
(0.14863 -0.8294 2.49912e-18)
(0.764041 -1.29379 -1.16738e-18)
(-0.239254 -0.337851 5.90148e-18)
(-0.0861837 -0.582158 1.08941e-18)
(-0.538964 -0.0428033 4.31507e-19)
(-0.407845 -0.226957 4.16357e-19)
(0.346556 -0.975452 1.32282e-18)
(-0.711132 0.111119 5.17387e-19)
(-0.688021 -0.0156104 -8.91736e-21)
(0.542284 2.05246 2.76862e-18)
(-0.813099 0.216019 -1.15948e-18)
(-0.354038 0.146099 1.06359e-20)
(-0.313578 0.150532 -2.16206e-19)
(0.480592 1.89139 4.30087e-18)
(-0.783877 0.129872 4.53629e-19)
(0.643256 -1.27213 2.58163e-18)
(-0.754717 0.178156 -6.47512e-19)
(0.561123 1.84032 3.63785e-18)
(0.595228 0.130775 -1.4675e-18)
(-0.0440701 -0.143588 4.90937e-18)
(-0.727235 0.0948976 -6.86236e-19)
(0.475081 0.0854596 -1.8778e-18)
(0.161099 0.304518 2.98776e-20)
(0.109223 0.380776 -4.75972e-20)
(1.05394 -1.53696 9.74648e-18)
(-0.211908 0.984519 1.77502e-19)
(0.18171 -0.459062 -4.74285e-21)
(0.106816 0.46061 9.57543e-18)
(0.395817 0.186512 3.53688e-20)
(-0.474866 1.66137 -1.29585e-17)
(0.428508 1.26801 5.83547e-18)
(0.726099 -1.45105 -4.11392e-18)
(-0.0865255 -0.489619 1.5915e-18)
(0.399374 0.354338 2.07257e-18)
(0.0133146 0.248097 -2.82493e-19)
(0.137229 -0.459882 -2.92875e-19)
(0.311343 1.11582 9.02865e-18)
(0.279424 0.371573 8.51577e-19)
(0.605765 2.00678 2.47969e-18)
(0.247417 0.30122 2.30947e-19)
(0.0491439 0.0185182 6.81212e-18)
(0.601113 -0.627644 3.39554e-18)
(0.00718402 3.33159 1.03304e-17)
(0.537896 -1.21749 7.7639e-18)
(0.580074 -0.661108 -1.0514e-18)
(0.656784 1.89066 1.8747e-18)
(0.449662 1.35811 6.60698e-18)
(-0.893856 -0.329371 2.8987e-18)
(0.58289 2.03923 2.07056e-18)
(0.662545 0.0151079 5.41889e-19)
(-1.02604 -0.164415 3.31014e-18)
(-0.0733186 1.94871 1.64269e-17)
(0.625488 -1.18693 -6.00581e-19)
(0.572479 -1.19928 5.49364e-18)
(0.62137 -0.66653 1.77403e-18)
(0.702462 -0.902765 2.26802e-18)
(-0.0557382 0.229007 -9.819e-20)
(-0.183987 -0.422126 5.96807e-18)
(-0.295078 0.196149 -3.13438e-19)
(-0.182113 -0.369409 7.84137e-18)
(0.120822 -0.417794 -2.71879e-19)
(-0.763155 -0.0228514 1.93923e-18)
(0.62381 -0.787204 -9.86766e-19)
(-0.177177 0.214212 3.79564e-19)
(0.000247078 -0.48057 3.27062e-18)
(-0.155485 2.81905 6.71482e-18)
(-0.92191 -0.494721 2.0269e-18)
(0.447844 0.818092 6.29833e-18)
(-0.259931 0.184101 -3.14613e-19)
(0.114174 -0.43653 -4.64732e-19)
(0.21962 -0.496425 1.74958e-19)
(0.19691 -0.535887 2.20855e-19)
(-0.207953 -0.968611 8.19492e-18)
(0.778254 -1.29401 -9.01242e-20)
(0.246784 -0.562554 3.22081e-19)
(0.483248 -0.501466 4.81382e-19)
(-0.462209 -0.574424 2.8908e-18)
(-0.412498 -0.578137 -2.01232e-18)
(0.0468907 0.351279 -5.92617e-19)
(0.31685 -0.338387 1.52829e-18)
(0.571596 1.62174 7.3258e-18)
(0.541216 -1.66075 -2.20781e-17)
(0.0666283 -0.65072 9.17415e-19)
(0.742125 -1.01439 2.36708e-18)
(-0.384934 0.189258 9.47388e-21)
(0.396977 1.42716 5.07056e-18)
(0.60759 1.59523 1.06716e-17)
(-0.17365 0.246303 1.07163e-18)
(0.0475992 0.303005 -2.71155e-19)
(0.126707 2.42477 1.43231e-17)
(0.094672 -0.261162 8.0701e-18)
(0.568487 1.76228 6.48009e-18)
(-0.770001 0.0634184 1.42591e-18)
(0.517976 -1.0408 -3.54904e-19)
(-0.492459 -0.50136 -1.39855e-18)
(-0.0530339 0.255712 2.77393e-19)
(-0.123725 -0.581246 2.76669e-18)
(-0.174292 1.27931 5.30794e-18)
(0.549535 1.78063 5.83769e-18)
(-0.0661888 0.279888 2.12886e-19)
(0.00336054 0.285409 -4.32456e-19)
(-0.239474 -0.807848 6.58557e-18)
(0.316758 -0.580426 2.16628e-18)
(-0.0505247 2.77828 6.10426e-18)
(-0.603638 -1.31228 6.87362e-18)
(-0.0351278 0.205218 -2.24797e-19)
(0.164173 1.83013 1.18085e-17)
(0.364343 -0.961385 -2.59736e-19)
(-0.0739937 3.01165 7.14151e-18)
(0.504311 -1.0311 -1.23534e-18)
(0.242043 -0.389383 6.49782e-19)
(0.401566 -0.560045 5.12959e-19)
(0.556379 1.15994 1.33284e-17)
(-0.129888 0.550394 4.70966e-18)
(-0.293138 0.112031 -2.27758e-19)
(0.175911 -0.378932 -1.7829e-19)
(0.438063 -0.624381 3.39653e-19)
(1.03424 -1.22923 -3.72536e-18)
(1.36172 0.107181 -2.46304e-18)
(0.541579 1.77797 3.25775e-18)
(0.435352 0.96867 1.14925e-17)
(-0.206014 0.195963 1.14323e-19)
(-0.306631 -0.908305 9.76527e-18)
(0.00604362 -1.09307 8.26555e-18)
(0.266574 -0.57281 3.06927e-19)
(-0.0157709 2.34005 9.28222e-18)
(1.19541 -0.266767 -1.66873e-18)
(0.337303 -0.87185 6.66182e-20)
(-0.101141 2.55739 5.78951e-18)
(-0.778544 -1.23087 9.31008e-18)
(0.318017 -0.375866 9.31417e-19)
(0.529581 1.97807 4.03288e-18)
(0.0840029 0.370739 9.19588e-18)
(-0.181672 1.18514 2.04313e-18)
(-0.109682 2.73025 4.72825e-18)
(-0.676887 0.103998 -1.08132e-18)
(0.580561 -1.12764 -1.40032e-18)
(1.10865 -1.583 -8.30245e-19)
(-0.233251 0.216449 2.47019e-19)
(0.503931 -0.840289 1.78861e-17)
(0.238687 3.22113 1.00055e-17)
(-0.270942 1.24846 1.12397e-17)
(1.08926 -0.317602 -4.81294e-18)
(-0.661255 -0.618974 9.69627e-18)
(0.726641 0.520771 1.01582e-17)
(-0.04374 0.18018 -2.78443e-19)
(0.127081 -0.321177 -1.08038e-19)
(0.198705 -0.335196 1.65614e-18)
(1.13618 0.00660426 -1.58038e-19)
(0.362852 1.45681 8.57533e-18)
(-0.079243 2.54333 8.04709e-18)
(-0.40804 0.578423 1.46489e-17)
(-0.373225 -0.576187 8.12628e-18)
(1.30815 0.283892 -6.80882e-18)
(0.0149946 0.406706 2.6107e-18)
(0.121065 -0.803822 -3.73842e-19)
(0.508155 -0.18113 -6.86592e-19)
(0.245585 -0.418009 5.68992e-19)
(-0.060406 -1.69418 8.66718e-18)
(-0.165641 2.37088 8.74559e-18)
(1.53466 0.0200926 -1.34647e-20)
(0.091194 -0.376093 8.00222e-19)
(-0.0729271 -0.446316 6.90535e-18)
(-0.0785171 -0.432568 2.73068e-18)
(1.25183 0.31284 -5.55567e-18)
(0.630653 -0.693263 2.18993e-20)
(0.062268 1.78911 1.03855e-17)
(-0.268587 0.150773 -1.51574e-17)
(-0.664665 0.937426 6.35546e-18)
(0.169855 -0.694045 3.68767e-19)
(-0.0108151 0.258007 -2.30844e-19)
(0.679372 -1.17318 -2.15592e-19)
(0.393349 1.6062 8.37499e-18)
(0.187713 -0.428562 7.12104e-19)
(-0.0797309 -0.712719 -6.40622e-18)
(-0.173984 -0.581871 7.66608e-19)
(-0.20458 2.27296 7.35006e-18)
(-0.341941 0.713392 1.85856e-17)
(-0.296951 0.0766063 1.3509e-19)
(0.300946 -0.526581 4.65795e-19)
(-0.238347 -0.252872 3.99607e-18)
(0.724804 1.80305 3.84108e-19)
(0.70744 -1.26501 2.02478e-18)
(0.42144 1.81169 8.60518e-18)
(-0.339665 0.536053 6.67024e-18)
(0.502714 -0.715863 8.09979e-19)
(0.296523 -0.461206 4.16927e-19)
(-0.295145 0.56502 1.335e-17)
(-0.730136 0.579206 1.50681e-19)
(0.0710437 -0.751142 -3.95961e-19)
(-0.389932 1.9986 1.09876e-17)
(-0.00380712 0.0206787 2.89816e-19)
(1.12394 -0.016074 -1.09221e-19)
(-0.195992 0.465903 6.40019e-19)
(0.380121 1.57671 1.57388e-17)
(-0.047505 1.16044 1.59009e-17)
(0.662594 1.71035 2.17772e-17)
(0.421128 4.06734 2.20698e-18)
(0.737629 -1.47023 4.22969e-18)
(0.18987 0.515872 1.14745e-17)
(-0.804538 0.786763 1.61257e-18)
(0.486425 -0.59431 -6.11085e-18)
(-0.342337 0.790748 1.61261e-17)
(-0.37068 1.63906 6.43788e-18)
(0.492906 1.91594 6.91284e-18)
(0.535583 1.79514 5.17722e-18)
(-0.00598006 -0.154419 5.89503e-18)
(1.6197 -0.027161 1.88087e-19)
(0.0747604 2.12987 1.06399e-17)
(-0.565246 0.125541 -1.1001e-18)
(-0.10214 0.101589 1.7388e-19)
(-0.258324 0.610624 4.31521e-18)
(0.453828 -0.53415 5.11053e-19)
(-0.0311309 0.161252 -2.03605e-19)
(-0.169108 0.435695 1.31165e-17)
(-0.588262 1.37592 4.58631e-18)
(0.655809 -0.427956 -1.67834e-19)
(-0.475317 0.0083193 1.10221e-17)
(0.392891 -0.320891 2.01748e-18)
(0.121951 -0.0051134 7.52913e-18)
(-0.50681 0.143235 -3.11227e-19)
(-0.82769 0.556629 7.34872e-19)
(-0.144626 0.499267 2.73358e-19)
(-0.203075 -0.579409 -1.49967e-19)
(0.0366002 -0.750946 -1.10433e-18)
(-0.00618759 0.275665 1.47993e-18)
(0.637656 1.69632 2.6654e-17)
(-0.223328 2.94997 1.61883e-17)
(-0.122869 0.247297 -1.13882e-19)
(0.00682971 1.10741 2.30961e-17)
(-0.0420208 -0.983997 5.91483e-18)
(-0.122038 0.427165 -5.59002e-20)
(0.0257325 0.0359915 -3.52834e-19)
(-0.547995 0.0476914 -3.61731e-19)
(-0.452951 1.12022 2.21197e-18)
(0.248649 0.524217 3.9509e-18)
(1.16935 -0.0839954 -2.01885e-19)
(-0.271815 0.0556356 6.18204e-19)
(0.00616671 1.24262 2.55281e-17)
(-0.587753 0.00518716 -5.53169e-19)
(0.509027 1.94615 7.5257e-18)
(0.888226 -0.363966 1.81108e-18)
(0.518343 1.80153 5.30626e-18)
(-0.782044 0.6194 -1.08893e-18)
(0.510192 -1.03397 -1.87873e-20)
(0.29793 -0.544782 6.95409e-19)
(0.0754401 -0.734258 -1.46062e-18)
(0.708897 -1.07485 7.09773e-19)
(1.52975 -0.0710666 4.67039e-21)
(-0.0605293 0.313947 1.65715e-18)
(0.179657 1.72845 1.15945e-17)
(0.369227 -0.716407 1.14453e-18)
(-0.46089 0.0899003 -5.03235e-19)
(0.147094 0.265324 7.00299e-20)
(0.344573 1.27537 2.28965e-17)
(-0.453477 0.228179 1.38555e-17)
(-0.57679 0.937503 1.69034e-18)
(-0.408821 -0.137582 1.35639e-17)
(0.176156 0.322674 7.78891e-19)
(0.00218028 0.231688 1.19248e-19)
(0.365525 -0.553834 7.03874e-19)
(0.338686 0.171389 -4.2767e-20)
(0.160338 -0.544691 1.97849e-19)
(0.666022 2.08847 1.77636e-18)
(0.103507 -0.75052 -3.75401e-19)
(0.161961 -0.967811 9.88964e-18)
(0.134575 -0.732677 3.43786e-17)
(0.763001 1.73857 2.70085e-17)
(0.145148 -0.355606 9.39007e-19)
(0.164061 3.44014 7.08349e-18)
(0.231436 0.890633 9.74037e-18)
(-0.111269 0.228601 -1.63586e-19)
(-0.421818 -0.558349 -1.16162e-18)
(-0.792329 0.479016 -3.75727e-18)
(-0.0957932 0.428864 -1.3891e-19)
(0.0943648 1.91791 1.30646e-17)
(0.427122 1.51077 2.81553e-17)
(0.769761 3.4849 6.97177e-18)
(1.10648 -0.0953667 -8.70408e-19)
(-0.147799 0.259564 1.94649e-19)
(-0.0646933 0.39331 8.23077e-19)
(0.743737 -1.46364 1.71933e-18)
(0.271914 -0.490152 3.3419e-19)
(-0.30664 -0.537751 -1.03011e-19)
(1.44312 -0.196567 -1.6461e-18)
(-0.453496 0.74728 1.02523e-18)
(-0.00572523 1.17088 2.0969e-17)
(0.172 0.574906 1.3502e-18)
(0.12356 -0.486266 -8.33425e-20)
(-0.101418 0.386441 -3.87909e-19)
(-0.47646 0.00426115 -3.89362e-19)
(0.580168 1.19375 1.37272e-17)
(0.0948008 -0.395022 7.32519e-19)
(-0.426671 0.110205 -2.25607e-19)
(0.531041 1.99196 7.3619e-18)
(0.00216717 -0.640541 -1.73943e-20)
(-0.446122 0.035455 -4.43855e-19)
(0.928143 -0.216778 -1.30574e-18)
(0.175245 1.42845 9.32898e-18)
(-0.544955 -0.0600356 -3.19475e-19)
(-0.0360246 0.142657 4.02409e-19)
(-0.685057 0.488388 -1.07869e-18)
(0.15826 0.634666 2.66971e-18)
(0.710225 1.92483 1.84159e-18)
(-0.57133 -0.114693 -3.4343e-19)
(0.408996 1.02729 1.75525e-17)
(0.507335 -0.391802 1.75482e-18)
(0.513238 1.94107 5.35762e-18)
(0.0620615 -0.327627 2.65491e-19)
(-0.0941156 0.396972 9.05411e-19)
(0.482714 -0.0992611 5.91704e-19)
(0.215157 -0.719434 -1.20064e-19)
(0.699694 1.78451 1.85325e-18)
(-0.457927 0.198817 1.35956e-17)
(-0.525567 0.625165 6.90666e-19)
(0.0777469 0.471991 2.15983e-18)
(-0.270313 0.0986851 3.6135e-18)
(0.142194 -0.520472 -3.84922e-20)
(0.756784 1.64194 2.79756e-17)
(-0.00505361 1.53791 6.06739e-18)
(0.124826 -0.382847 6.11595e-19)
(0.0989873 0.461557 4.08681e-19)
(-0.22026 -0.698753 -1.68405e-18)
(-0.120485 0.939751 1.13325e-17)
(0.282027 0.713809 6.86839e-18)
(0.401376 -0.993226 7.74534e-19)
(-0.548121 -0.337219 -7.5216e-19)
(0.274495 1.52653 2.94505e-17)
(-0.154775 0.192434 -6.99589e-20)
(0.42854 -0.169813 7.08983e-19)
(-0.704275 0.359882 -9.54888e-19)
(0.128887 -0.60636 1.32385e-19)
(-0.0861096 0.37314 -5.97666e-19)
(-0.0812572 0.218051 -8.50909e-20)
(0.00213057 0.57409 9.46894e-19)
(-0.129619 0.412825 -3.50538e-19)
(0.0872021 1.12116 1.25757e-18)
(-0.144362 -0.734917 -1.104e-18)
(0.181033 -0.368142 5.16287e-19)
(0.408692 0.0422035 -4.76233e-19)
(0.595455 1.9509 1.20778e-17)
(-0.388419 0.0739246 -1.46861e-19)
(-0.251672 0.143613 -6.60187e-19)
(0.299013 4.47061 1.6308e-17)
(-0.187796 0.166552 3.06673e-19)
(0.0306818 -0.279825 4.80669e-19)
(0.187854 0.511535 1.08518e-18)
(0.243456 0.223306 -2.41968e-19)
(1.0274 -0.948538 -1.43958e-18)
(0.0466199 -0.367986 6.68267e-19)
(-0.443278 -0.0425065 -3.06035e-19)
(0.510857 2.008 5.06685e-18)
(0.000830994 -0.813209 -4.04794e-19)
(1.20782 0.941185 -5.43675e-19)
(-0.42602 0.503689 2.5798e-19)
(0.649988 0.642863 8.87714e-18)
(-0.624084 0.0528402 7.14942e-19)
(-0.103105 0.34186 -7.47591e-21)
(-0.395354 0.00987577 -2.45374e-19)
(-0.465035 -0.0841555 -2.78935e-19)
(-0.112824 0.207512 -3.02839e-19)
(0.268304 0.192346 -1.35032e-19)
(-0.0570293 1.13279 6.83701e-19)
(0.388756 -0.0286191 4.95685e-19)
(0.809239 1.06323 2.54933e-17)
(-0.140119 0.396302 -7.77582e-19)
(-0.0581312 0.501514 6.82065e-19)
(-0.510088 -0.167996 -2.43233e-19)
(-0.277542 0.278529 2.57369e-18)
(0.457099 0.469389 2.51934e-18)
(-0.266504 0.0309044 -4.86467e-19)
(0.0695103 0.250783 -1.04003e-19)
(0.727278 -0.82033 -1.64968e-17)
(-0.373956 0.0324542 -1.73243e-19)
(-0.358441 0.093684 -1.94878e-21)
(0.311185 0.116134 -1.32108e-19)
(-0.199855 0.147494 3.44605e-19)
(-0.226582 0.132735 -5.58933e-19)
(0.0248816 -0.82871 -6.84258e-20)
(-0.0381121 0.845115 6.44732e-18)
(-0.15346 0.282752 9.40788e-19)
(0.567918 1.60447 2.99368e-17)
(-0.519895 -0.233573 -4.749e-19)
(0.115181 -0.57149 2.18163e-19)
(-0.129153 0.191397 -4.15816e-19)
(0.107839 0.25128 -4.4423e-20)
(-0.0691592 0.867916 -1.61516e-19)
(0.0422141 -0.288474 1.84274e-18)
(0.345563 -0.130085 1.0047e-18)
(-0.0677836 0.679111 2.14709e-18)
(-0.149073 0.167376 5.83994e-19)
(-0.14843 0.510174 1.56863e-19)
(-1.39589 -1.44131 6.41346e-18)
(0.157907 0.21311 -2.14129e-19)
(0.313024 0.0612655 -3.93518e-19)
(-0.597694 -0.360722 -1.09784e-18)
(-0.266037 0.111524 -3.83096e-19)
(0.59348 -0.485838 -6.86538e-19)
(-0.118413 -0.813649 8.32873e-19)
(0.620703 1.88881 1.50177e-17)
(-0.355945 -1.27321 7.94796e-18)
(0.850799 0.137801 -2.46845e-18)
(-0.0790153 0.193647 -4.37608e-19)
(-0.529557 -0.377263 -4.05653e-19)
(-0.159883 0.155544 8.11458e-19)
(0.614608 0.42543 8.56463e-19)
(0.181035 0.192506 -8.58163e-20)
(-0.0913008 0.32259 1.78132e-19)
(0.302614 -0.171407 5.55088e-19)
(-0.465562 0.419575 1.72951e-19)
(-0.201829 0.830268 -6.5735e-20)
(-0.173419 0.380978 1.38038e-19)
(-0.0259319 0.126703 3.78062e-19)
(-0.364824 -0.601244 -1.0786e-18)
(-0.369829 -0.0266161 -1.9134e-19)
(0.168163 -0.576577 6.32013e-20)
(0.294114 -0.915548 -9.25735e-20)
(-0.385502 -0.0568036 -2.05611e-19)
(0.883577 0.678323 1.79107e-17)
(-0.481277 -0.471709 7.42449e-20)
(0.50655 2.00809 4.23416e-18)
(0.22457 0.144903 -4.15422e-20)
(-0.418989 -0.125958 -2.05248e-19)
(0.0998188 -0.705622 -3.67714e-19)
(0.0920343 -0.478435 -3.94178e-19)
(0.308305 -0.0244908 3.15146e-19)
(0.0235362 0.211223 2.49224e-19)
(-0.094448 0.186591 -3.38874e-19)
(-0.306955 -0.664707 -1.57333e-18)
(-0.0111646 0.211276 -2.42309e-19)
(0.217981 -0.220947 1.70353e-19)
(-0.167768 0.454204 -3.68819e-19)
(0.0472564 0.215884 -2.08359e-20)
(-0.431351 -0.176331 -1.94356e-19)
(0.460429 1.985 1.58168e-18)
(-0.21735 0.636924 -1.32229e-19)
(0.238504 0.109147 -7.7631e-20)
(0.579062 1.39867 2.71674e-17)
(0.0977352 0.20152 -2.52975e-19)
(-0.153506 0.355195 5.78103e-20)
(0.0810365 -0.427209 7.56733e-19)
(-0.179233 0.13028 3.42977e-19)
(0.662725 -0.102338 -1.16426e-18)
(-0.109216 0.295668 -3.90805e-19)
(0.00271127 -1.20302 1.36333e-18)
(-0.00490428 0.607364 1.42221e-18)
(-0.118909 0.166491 -2.49912e-19)
(-0.324729 0.0654162 4.74046e-20)
(0.288734 -0.0690596 6.44234e-19)
(-0.11518 0.367743 4.87961e-19)
(-0.692205 -0.224114 -7.48467e-19)
(0.119222 0.186872 -5.37607e-19)
(-0.0388047 0.513376 3.67022e-19)
(-0.451091 -0.286285 -3.04119e-19)
(-0.334562 0.0136194 -1.96585e-19)
(0.179907 -0.238421 -2.95856e-19)
(-0.222544 0.1051 -9.99937e-19)
(-0.172376 -0.795203 -1.82635e-19)
(0.253869 0.0439258 -2.54658e-19)
(0.470681 0.937697 1.81702e-18)
(0.129699 -0.278834 -2.13156e-20)
(0.611322 1.74202 1.57494e-17)
(-0.128408 0.156506 -1.72458e-19)
(-0.146718 0.136417 1.71492e-19)
(-0.169551 0.358442 5.65352e-19)
(-0.289669 0.580379 1.57164e-19)
(0.476413 -0.419534 8.36114e-19)
(0.156708 0.154649 3.75072e-19)
(0.246129 -0.133388 7.99011e-19)
(0.113858 -0.539106 -6.39352e-20)
(-0.446144 -0.364358 -3.30658e-19)
(0.893645 0.0174183 9.55731e-18)
(-0.119426 -0.836814 -9.35844e-20)
(0.0839548 -0.439889 3.87461e-19)
(-0.388005 0.345195 2.46253e-19)
(-0.18673 0.114305 3.68379e-19)
(-0.250862 0.0834238 -5.79469e-19)
(-0.0974823 0.270112 2.53639e-20)
(-0.224429 0.431169 -3.38447e-19)
(-0.0617868 0.173937 -2.27681e-19)
(-0.154411 0.124826 1.80074e-19)
(0.249275 0.00641216 -2.29958e-19)
(0.173738 0.132079 1.65503e-19)
(0.050632 0.18248 -3.44457e-20)
(-0.242139 0.0195268 -5.65338e-19)
(-0.00407778 0.185858 -4.3862e-19)
(-0.158117 -0.633634 -6.17998e-19)
(0.571285 1.66201 1.7533e-18)
(0.0133848 0.18642 -1.69999e-19)
(0.216275 -0.157349 8.23181e-19)
(0.140319 -0.783261 1.69864e-20)
(-0.351881 -0.0939468 -1.43611e-19)
(-0.408401 -0.511207 1.01297e-19)
(-0.206239 0.100097 -6.61696e-19)
(-0.0870311 0.163705 -1.57427e-19)
(0.070548 0.176633 -5.8494e-20)
(0.124158 -0.389437 9.15588e-19)
(-0.360764 -0.133272 -1.40042e-19)
(-0.315644 0.0322948 -2.2657e-19)
(0.797722 0.847935 1.95146e-17)
(0.197398 0.0853114 -3.60668e-20)
(0.520385 1.98028 1.7972e-18)
(-0.0304032 0.112406 1.08666e-19)
(-0.327659 -0.038615 -1.49215e-19)
(0.10462 0.155105 -2.68004e-19)
(0.234568 -0.0546401 4.13168e-19)
(-0.378735 -0.224251 -1.33861e-19)
(-0.0283269 -0.917415 6.44784e-19)
(-0.379657 -0.577329 5.67031e-19)
(-0.0987994 0.155707 -1.08467e-19)
(-0.116759 0.385787 1.47056e-19)
(-0.118244 0.139218 -2.5986e-19)
(-0.127149 0.129756 -1.33263e-19)
(0.202435 0.0559517 -6.73507e-20)
(-0.00492427 0.462292 -2.21819e-19)
(-0.280783 0.47092 -1.27167e-19)
(-0.231771 0.0819337 -5.10837e-19)
(0.157092 -0.191716 3.13858e-19)
(-0.315129 -0.0154017 -1.29952e-19)
(-0.289847 -0.725481 -9.61141e-20)
(-0.380013 -0.286614 -1.43614e-19)
(-0.122204 0.380931 -3.79018e-19)
(-0.0393427 0.410224 -3.99288e-20)
(0.0448017 -0.568554 5.2653e-19)
(-0.288713 -0.595682 -1.42957e-18)
(0.120995 0.141594 -3.55658e-20)
(-0.196328 0.331239 4.13701e-19)
(0.0989063 -0.241713 5.45157e-20)
(-0.408374 0.291497 1.45556e-19)
(0.215592 -0.0845906 2.2372e-19)
(-0.00886724 -0.59696 2.3043e-19)
(0.506428 1.38745 1.45817e-17)
(-0.141784 0.10979 7.87883e-20)
(-0.216047 0.392571 -4.68918e-19)
(0.814069 -0.155423 3.70543e-18)
(0.314758 0.677855 2.97681e-18)
(0.148932 0.10775 7.24522e-20)
(0.204981 0.00359512 -4.24314e-19)
(0.129993 -0.390331 7.06686e-19)
(-0.518775 -0.556302 -1.20622e-18)
(-0.0344443 -0.926317 2.03858e-18)
(-0.376077 -0.417451 -1.8173e-19)
(0.0178359 0.162762 -1.84766e-19)
(0.0820754 -0.496478 -1.75806e-19)
(0.103185 -0.403959 6.23363e-20)
(-0.167984 0.102181 3.41917e-19)
(-0.658934 -0.246911 -1.31441e-18)
(0.0337824 0.161383 -1.82762e-19)
(-0.060527 0.153872 3.47272e-20)
(-0.252427 0.0607479 1.58281e-19)
(0.178806 -0.128614 2.62638e-19)
(0.0647718 0.149098 1.56317e-19)
(0.0735458 -0.55065 3.48127e-19)
(-0.242018 -0.582755 -7.57608e-19)
(-0.649428 -0.365355 4.239e-19)
(0.117179 -0.407307 7.19118e-19)
(0.0737449 -0.458812 4.27246e-19)
(0.157116 0.0860979 2.90025e-20)
(0.129394 -0.197692 2.67999e-19)
(-0.940572 -1.43662 8.31317e-18)
(-0.0714786 0.148601 -1.18038e-20)
(0.816467 0.547927 1.18721e-17)
(0.221967 -0.634218 1.52379e-18)
(-0.240441 -0.787324 1.74349e-19)
(0.0167461 -0.700722 -2.35988e-19)
(0.0983177 -0.523869 -4.08656e-19)
(0.195913 -0.0251152 -1.9744e-19)
(-0.363434 -0.491361 -9.43124e-20)
(-0.0121744 0.164872 -1.31169e-19)
(0.0792436 0.140228 1.25398e-19)
(-0.0920257 0.137747 -3.95358e-19)
(-0.0863129 -1.04828 4.47225e-18)
(-0.117548 0.114835 -8.54388e-20)
(-0.149037 -0.567278 -3.28434e-19)
(0.514442 1.77313 1.27525e-17)
(-0.321793 -0.179102 -8.59134e-20)
(0.12797 -0.441576 -7.44211e-19)
(0.169385 0.0435603 -5.14907e-20)
(-0.199995 0.0786003 -8.16494e-19)
(-0.317743 0.43002 -2.20847e-19)
(-0.101079 0.130214 -5.33752e-19)
(-0.597382 -0.165378 4.16548e-19)
(-0.395888 -0.559299 -1.21872e-18)
(-0.31011 -0.10322 -9.01066e-20)
(-0.0127288 -0.266218 -1.97474e-19)
(-0.329826 -0.638636 4.54667e-19)
(0.157565 -0.381885 2.39154e-19)
(0.105896 0.116708 -1.86038e-19)
(0.155348 -0.144425 8.55256e-20)
(0.1823 -0.392022 4.13226e-17)
(-0.571202 -0.23524 5.16575e-19)
(-0.548956 -0.432054 -1.15757e-18)
(-0.323442 -0.230538 -7.74582e-20)
(-0.124692 0.105777 -3.16311e-20)
(0.196619 -0.734803 -2.56414e-19)
(-0.147255 0.0995011 1.37381e-19)
(0.0774974 -0.238799 -1.43272e-19)
(-0.597729 0.00481466 2.76564e-19)
(-0.302838 -0.0713189 -8.67126e-20)
(-0.185105 0.308716 -6.7713e-20)
(0.0799355 -0.399185 9.54749e-19)
(0.176586 -0.0707283 5.16288e-19)
(-0.365993 0.247777 -3.01446e-19)
(-0.0190337 0.368396 -2.22731e-19)
(-0.130757 -0.894374 -4.904e-19)
(0.317582 -0.574923 4.86888e-18)
(-0.0273009 -0.226014 -7.16094e-20)
(0.116135 0.101755 -4.97969e-20)
(-0.284014 0.0177942 -5.89663e-19)
(-0.0806519 -0.557206 -3.98179e-20)
(-0.240343 -0.64748 -1.46072e-18)
(0.167506 0.0188753 -1.61946e-19)
(-0.172942 0.0890387 3.77762e-19)
(-0.120092 0.372653 -3.66162e-19)
(0.463666 0.989552 1.6007e-17)
(-0.528996 -0.108584 4.49641e-19)
(0.111169 -0.392929 -5.10274e-19)
(-0.324191 -0.344822 -5.76904e-20)
(-0.301032 -0.710841 4.94886e-19)
(-0.239288 -0.484277 -1.52639e-20)
(0.133375 0.0686302 2.51069e-20)
(-0.250541 0.354518 -4.15201e-19)
(0.0760888 -0.560331 1.45722e-18)
(-0.258265 -0.514498 1.12862e-18)
(-0.187196 0.0760614 -3.86582e-19)
(-0.0511628 0.336144 4.98258e-22)
(0.0207288 -0.473278 -1.20207e-19)
(-0.220011 0.063203 -2.74111e-19)
(0.0331114 0.138244 -2.31957e-19)
(0.0399114 -0.744015 -1.30399e-18)
(0.0461907 -0.255354 3.8053e-19)
(0.159967 -0.0919532 4.43492e-19)
(-0.556313 -0.0719832 4.02583e-19)
(0.0463301 0.133509 -1.44038e-19)
(0.0980839 -0.437088 1.04052e-18)
(0.00712516 0.144446 -9.97174e-20)
(-0.317293 -0.414282 -2.96852e-20)
(-0.0489277 0.139082 4.00231e-19)
(-0.0685915 0.131854 -6.26233e-20)
(0.161515 -0.0232017 -2.55813e-19)
(0.070877 0.117281 3.71522e-20)
(-0.0236446 0.0993559 2.73328e-19)
(-0.281333 -0.0265041 -3.99577e-20)
(0.13607 0.0488041 7.57604e-21)
(-0.232823 -0.0014825 7.84975e-20)
(-0.00598082 0.144688 -1.57705e-19)
(0.828039 0.142613 5.13419e-18)
(0.111531 -0.164586 2.28702e-19)
(-0.0780128 0.126449 -1.00593e-20)
(0.312144 -0.645104 1.82333e-18)
(-0.138806 0.354596 1.03406e-20)
(-0.194233 -0.501135 2.09268e-19)
(-0.0948438 0.115333 -6.0802e-20)
(0.0755163 -0.199609 8.95061e-21)
(-0.0858591 -0.914254 -1.76301e-18)
(0.0811551 0.106947 -5.24791e-20)
(0.0628093 -0.427386 -3.70704e-19)
(0.219487 -0.521024 -2.88153e-19)
(-0.387874 -0.441509 -3.26267e-19)
(-0.161733 -0.586379 -3.88677e-18)
(-0.302301 -0.556003 9.57463e-20)
(-0.102514 0.108246 -2.58622e-20)
(0.06475 -0.418408 6.32764e-19)
(0.0996975 0.0824934 -2.61855e-20)
(-0.205189 0.0619482 -3.39802e-19)
(0.128053 -0.120919 2.46143e-19)
(0.151422 -0.0452239 7.04899e-20)
(0.139204 0.0125426 -5.56981e-20)
(-0.213939 -0.828427 9.3606e-20)
(0.292516 0.497519 1.38304e-18)
(-0.462356 -0.520221 -1.37105e-18)
(-0.269914 -0.00795031 -2.4658e-20)
(-0.287465 -0.626794 1.43001e-19)
(-0.296925 0.361151 5.89689e-19)
(-0.234255 0.0452531 3.73735e-19)
(-0.466132 -0.317724 -5.94932e-19)
(-0.102185 -0.460155 -2.26491e-19)
(-0.281422 -0.188053 -4.36913e-20)
(-0.280407 -0.144534 -4.75251e-20)
(-0.155721 0.0810816 2.63937e-19)
(-0.135553 0.0881048 7.74212e-20)
(0.105304 0.0674311 -5.61504e-21)
(-0.235726 0.32407 -1.07173e-19)
(-0.115837 0.0938499 -5.09424e-21)
(0.18015 -0.318486 3.86454e-20)
(-0.279346 -0.287561 -1.87847e-20)
(-0.302821 -0.442921 -5.66152e-20)
(0.160363 -0.407162 5.11847e-19)
(-0.197136 0.272766 7.55014e-19)
(-0.352849 -0.436453 9.49691e-20)
(0.0425162 0.112918 -9.72032e-20)
(0.0918761 -0.167854 1.53288e-19)
(-0.269118 -0.0811671 -1.23771e-20)
(-0.0407034 -0.43628 -3.10529e-19)
(-0.0438505 -0.871688 8.22552e-19)
(0.134506 -0.00747681 -1.20394e-19)
(0.114147 0.0376142 7.51356e-21)
(-0.248036 -0.747645 4.52902e-19)
(0.0198068 -0.222466 2.37914e-19)
(0.0206832 0.123186 8.7194e-20)
(0.447651 1.36901 1.22455e-17)
(-0.462568 -0.194478 5.31201e-20)
(0.00942235 0.125423 -2.49951e-21)
(-0.0484783 0.123571 -2.55802e-19)
(0.0524286 0.106066 -2.14746e-20)
(-0.274146 -0.350017 8.79013e-21)
(0.131292 -0.0781544 5.53263e-21)
(0.110705 -0.13126 2.12944e-19)
(-0.396975 -0.342606 -1.82429e-19)
(-0.0577015 0.120007 -3.4568e-19)
(0.21514 -0.314576 -7.94735e-19)
(0.0707119 0.0883289 -1.48616e-20)
(-0.0391262 0.30614 -2.55239e-19)
(-0.0745328 0.112137 6.00698e-20)
(0.0575924 -0.198276 3.21421e-20)
(-0.261849 -0.0554364 1.16835e-20)
(0.819015 -0.756998 2.58412e-18)
(0.00261048 -0.815474 1.52931e-18)
(-0.180347 0.0590618 -3.46821e-19)
(-0.173175 -0.858996 -1.24313e-19)
(-0.193771 -0.416801 5.15486e-20)
(-0.22065 0.047785 -2.77897e-20)
(0.494564 1.25942 1.79604e-17)
(-0.333326 -0.758616 -1.30488e-17)
(-0.459543 -0.101439 2.83786e-19)
(0.322919 0.101287 1.28377e-17)
(-0.260998 -0.481238 1.43057e-19)
(-0.0823615 0.106833 5.94134e-20)
(0.025657 -0.363242 2.36971e-19)
(0.130223 -0.372147 1.67201e-18)
(0.113623 0.0204787 2.71616e-20)
(-0.139099 0.0796746 1.04977e-19)
(0.0774742 0.0772864 -2.71978e-20)
(-0.12134 0.0858746 -7.80097e-22)
(-0.0130903 0.128115 8.91893e-20)
(-0.159867 0.0711646 1.85661e-19)
(0.0302104 -0.209362 1.28961e-19)
(-0.428741 -0.225238 -1.98656e-19)
(-0.0965044 0.0958835 3.57515e-20)
(-0.220009 -0.786097 1.08076e-18)
(-0.436357 0.131695 2.95664e-18)
(-0.583628 -0.189139 3.40571e-19)
(0.0458801 -0.448312 6.02324e-19)
(0.124701 -0.0403135 -4.2777e-19)
(-0.142208 -0.401755 -1.18847e-19)
(0.117607 -0.0928725 1.3028e-19)
(-0.249684 -0.551541 2.45304e-19)
(0.0891402 0.053831 -5.37705e-20)
(-0.0272479 0.0881017 4.78075e-20)
(-0.315698 0.323347 8.15099e-19)
(0.105227 -0.364052 5.73937e-19)
(0.116893 -0.377842 7.12368e-19)
(-0.131955 0.33618 8.18209e-20)
(0.0521009 -0.49543 -1.0727e-18)
(-0.427226 -0.129966 2.93105e-19)
(0.58488 -0.369498 -2.10852e-19)
(-0.170494 0.0580641 -1.55002e-21)
(0.0765484 -0.546497 -2.70095e-20)
(-0.102846 0.0892817 4.20183e-20)
(-0.213174 -0.00950028 4.17052e-19)
(-0.228303 -0.670024 1.73566e-19)
(0.0913625 0.0399598 -8.06725e-20)
(-0.0647272 -0.359816 -8.66529e-19)
(0.046374 0.0888947 -1.31504e-21)
(0.111271 -0.00935811 -8.0339e-20)
(-0.282143 -0.35489 -9.76322e-19)
(0.0201589 0.105529 1.09136e-19)
(-0.195126 0.0483378 -3.48099e-19)
(0.0292142 0.101292 2.40488e-20)
(0.130387 -0.406677 7.50977e-19)
(-0.0564947 0.106414 2.70631e-20)
(0.277547 0.994844 1.11704e-17)
(-0.244457 -0.238545 -7.3807e-21)
(0.115042 -0.056613 -4.42857e-19)
(0.0534557 0.0810805 8.86161e-22)
(-0.223932 -0.354101 -4.2016e-19)
(-0.0401006 0.110504 -1.05475e-20)
(-0.00825314 -0.211652 1.22783e-20)
(-0.0745539 -0.855945 -9.56859e-21)
(-0.254098 0.282926 -4.31399e-19)
(-0.867515 -0.578485 9.212e-18)
(-0.633364 0.188676 -6.5033e-19)
(0.0433916 -0.533261 4.4675e-19)
(-0.229294 0.0283839 -6.5298e-20)
(0.000983474 0.11153 -1.24408e-19)
(-0.244436 -0.117166 1.68834e-21)
(0.124118 -0.386192 -3.24805e-19)
(-0.0254488 -0.337017 -5.73738e-19)
(0.0541065 -0.169518 -2.26887e-19)
(-0.246425 -0.15299 -8.93414e-21)
(-0.0643157 0.102642 4.32468e-20)
(0.0944864 0.0140127 7.15927e-20)
(-0.212968 -0.709852 4.22691e-19)
(-0.23853 -0.293557 1.88432e-20)
(-1.53236 0.348472 2.27783e-18)
(-0.00890858 0.112337 -1.06602e-19)
(0.0784188 -0.143609 1.19539e-19)
(0.110659 0.101504 5.29514e-18)
(0.391291 -0.277239 1.08724e-17)
(0.066268 0.0631205 -5.41734e-20)
(0.0471219 -0.459659 8.26173e-19)
(-0.144561 -0.797564 4.56178e-19)
(-0.242799 -0.0175994 8.4958e-20)
(0.0856777 -0.37739 4.3915e-19)
(-0.183604 0.046949 -4.99365e-19)
(-0.0786534 0.0946234 7.0074e-20)
(0.105519 -0.025364 -1.99578e-19)
(-0.555035 -0.805523 -4.30371e-20)
(-0.222704 -0.412267 1.28576e-19)
(0.131393 -0.386845 7.0468e-19)
(-0.60715 0.0349297 1.85433e-19)
(0.091731 -0.112675 3.98968e-20)
(-0.142039 -0.330477 4.92073e-20)
(-0.156036 0.0611119 1.18503e-19)
(-0.343341 -0.266647 1.20924e-21)
(0.0700321 0.0523052 -1.18211e-19)
(0.250877 -0.349553 5.1446e-19)
(0.0111897 -0.184884 8.14747e-20)
(-0.15168 0.312598 -4.02299e-19)
(-0.234236 -0.0643455 7.38203e-20)
(-0.29291 -0.280646 -1.80836e-19)
(-0.114094 0.0762766 -2.66041e-19)
(-0.211926 -0.479782 2.70629e-19)
(0.0918353 -0.000231658 1.38901e-20)
(-0.130702 0.0706087 1.8337e-21)
(-0.0853386 0.0894551 6.81211e-20)
(-0.101191 -0.318579 -4.90636e-20)
(-0.206523 0.0362028 -1.89365e-19)
(-0.175625 -0.730707 5.66378e-19)
(0.0966779 -0.0806699 -1.69106e-19)
(0.026405 0.0859743 2.22111e-20)
(0.0763655 0.0308667 2.42271e-20)
(0.0332915 0.080627 1.72697e-20)
(-0.0623346 -0.802478 3.50032e-19)
(-0.14647 0.0568557 6.44993e-20)
(-0.190732 -0.597717 1.17321e-19)
(0.304118 1.11485 -1.85725e-18)
(-0.650624 -0.177856 -2.22523e-19)
(-0.556912 -0.0359514 1.61715e-19)
(0.01063 0.0942626 -1.64598e-19)
(0.0461199 0.0673512 5.61177e-21)
(1.19599 0.710629 -5.3548e-18)
(0.0410985 -0.168512 -3.72174e-19)
(0.00254103 0.0966189 -2.28718e-19)
(0.0761846 0.0185877 1.79866e-20)
(-0.1666 0.0457874 1.2719e-19)
(0.0645875 -0.145687 1.66575e-19)
(-0.290437 0.277742 -2.31103e-19)
(-0.0975043 0.0789375 7.22087e-20)
(-0.209955 -0.283424 3.78001e-19)
(-0.113388 -0.758979 1.46563e-18)
(-0.195786 0.0373354 -7.41857e-20)
(-0.0408873 0.0979329 4.54669e-20)
(0.0202402 -0.176258 9.07027e-20)
(0.0943036 -0.0506311 9.97357e-20)
(-0.363981 -0.176078 5.05338e-19)
(0.0173982 -0.727664 2.05563e-18)
(-0.136067 0.0617592 2.84919e-20)
(-0.228139 -0.042333 1.3032e-19)
(-0.048323 0.0957739 7.05356e-20)
(0.0569294 -0.536424 1.07383e-18)
(-0.020407 -0.185103 -3.64208e-20)
(-0.0624585 0.0907929 -1.95989e-20)
(-0.329638 -0.196974 8.49486e-20)
(0.050693 0.0592225 -5.63225e-21)
(-0.167053 -0.281724 2.72547e-19)
(-0.0456651 -0.283796 -5.36046e-19)
(-0.180699 -0.641211 -2.12641e-19)
(0.0787101 -0.119849 4.84683e-20)
(-0.0554507 -0.175748 5.26852e-21)
(-0.230016 0.257232 3.35914e-19)
(0.0864819 -0.0244605 7.67457e-21)
(0.0426709 -0.513436 -1.85556e-19)
(-0.152887 -0.699329 -7.37396e-19)