/*--------------------------------*- C++ -*----------------------------------*\
  =========                 |
  \\      /  F ield         | OpenFOAM: The Open Source CFD Toolbox
   \\    /   O peration     | Website:  https://openfoam.org
    \\  /    A nd           | Version:  8
     \\/     M anipulation  |
\*---------------------------------------------------------------------------*/
FoamFile
{
    version     2.0;
    format      ascii;
    class       volScalarField;
    location    "0.55";
    object      alpha.water;
}
// * * * * * * * * * * * * * * * * * * * * * * * * * * * * * * * * * * * * * //

dimensions      [0 0 0 0 0 0 0];

internalField   nonuniform List<scalar> 
1924
(
0.156496
0.000155143
8.10085e-06
9.68205e-07
0.000154173
1.39714e-09
1.32895e-09
1.09846e-07
1.05709e-07
5.68151e-05
2.33711e-08
1.28478e-10
0.998265
1.30903e-10
0.0061262
0.00309291
0.87641
4.36685e-11
0.530483
5.12964e-11
0.999718
0.000353938
0.99513
1.53723e-10
0.00805528
0.000303707
6.14242e-06
0.0010996
2.817e-05
5.55386e-09
0.985564
0.0132244
8.91179e-06
0.997308
0.00109301
0.986535
2.74143e-05
2.50793e-05
5.99474e-06
0.984484
2.04471e-05
0.998785
0.000151315
0.998302
5.81007e-10
8.43245e-06
0.329776
9.44569e-10
1
1
0.942399
0.908404
0.000786529
0.424223
1.30058e-05
0.000187591
0.551963
6.26466e-10
-4.94339e-06
0.00109672
0.998758
0.000748978
0.998903
3.31457e-07
0.00865034
9.46312e-10
2.58299e-05
0.812066
9.72458e-06
0.995847
0.0440505
7.27436e-05
2.36926e-06
2.82822e-09
3.21506e-12
0.075955
1.00033e-09
1.23731e-12
6.4595e-10
0.996079
2.26455e-12
8.39151e-06
5.45084e-10
0.874051
0.141834
0.274944
2.59792e-05
0.000825137
1
0.0359623
8.90519e-06
7.82581e-05
1.5789e-05
4.53691e-05
0.0356308
5.97089e-05
3.35139e-10
1.20644e-11
0.00147128
0.0955147
1.40765e-05
0.179549
0.00146979
0.00134505
7.08539e-05
1.78335e-11
1.47501e-05
7.10952e-05
0.0002097
0.000402987
3.07711e-10
1.79527e-05
3.66635e-05
1.38697e-08
3.46516e-10
0.978256
1.31851e-05
0.00116607
0.514649
5.35056e-10
0.727913
1
0.99989
0.445052
7.88867e-05
0.00096322
0.094405
1.23731e-12
0.000634819
1
3.08025e-10
1.48696e-05
0.060416
1.34905e-10
0.169098
0.000952048
2.43781e-05
4.08428e-05
-5.69551e-11
0.000338829
-3.95744e-09
8.07432e-05
0.0938402
0.0557557
0.000145797
1
0.000691962
0.0367756
0.00186737
0.400945
2.63272e-09
1
0.0562143
0.000146627
5.20403e-05
0.00096322
1
1.44954e-05
4.93985e-10
0.0147902
2.87426e-08
1.31248e-05
0.000146706
1
0.00702817
0.00096322
0.00073179
1
4.69845e-11
0.000565044
8.43029e-06
1.88837e-05
1.01028e-11
0.00147052
6.14161e-08
0.00944521
2.536e-05
0.386357
0.992415
3.11698e-05
0.00162753
0.0051483
1.29896e-11
0.000714293
1
0.010407
0.111322
3.04363e-06
6.05569e-11
7.56047e-11
0.00069371
9.6077e-09
1.20618e-10
1.46267e-09
2.2741e-06
1
6.84049e-07
0.0225599
0.000548719
0.0391193
0.000344253
0.000171877
0.000535704
1.02619e-08
2.19563e-05
0.00150141
8.37555e-10
0.106553
0.0356308
0.245427
1
1.50105e-05
9.55572e-09
1.19258e-06
2.04298e-06
1.13196e-11
0.0120692
0.000824838
3.27709e-09
1.49494e-12
0.000763259
5.81007e-10
9.00956e-06
1.02294e-06
3.6726e-09
2.27498e-06
1.40783e-10
6.36213e-13
9.02127e-07
0.0177363
0.0875439
0.00140298
0.00606652
0.239115
9.11502e-06
0.0175692
4.54871e-07
3.22777e-10
4.00036e-06
1
3.44545e-05
0.00108382
2.3226e-08
0.0758447
0.02408
0.0354262
1.8519e-10
3.69197e-10
1.21537e-11
9.2401e-13
0.00399227
1
1.39516e-08
1.49178e-05
2.67208e-11
7.64837e-05
0.000399
2.95244e-05
0.000543347
2.30932e-10
0.000534893
2.99401e-06
0.00108148
2.00074e-11
0.0256725
6.49756e-14
0.99994
2.97961e-12
1.30058e-05
0.469067
0.00677525
7.93793e-08
8.5546e-06
0.000219062
0.00135277
3.4709e-12
1.52195e-10
1.01256e-05
0.000110079
0.00130751
0.251704
1
0.000496706
1.44161e-08
0.763911
6.8243e-11
4.54929e-11
1
4.46293e-10
4.92385e-06
5.60953e-06
5.99502e-06
6.997e-06
1.24104e-05
0.999992
0.00207718
0.0014928
0.028642
3.085e-12
2.65021e-05
1
4.58581e-05
1.28586e-08
0.0120692
2.15701e-10
0.000189392
0.999517
3.09321e-09
0.00324999
5.68316e-10
0.0353645
0.0850596
1.3944e-08
0.00792703
3.97318e-11
0.999452
7.05724e-06
1.21266e-09
9.19067e-08
6.40119e-06
1.05455e-06
0.00631149
3.65491e-05
0.000343626
6.14396e-06
1.65223e-14
3.93033e-06
0.000476342
2.2467e-09
6.19623e-11
0.00119335
2.66646e-05
0.00424996
-2.48425e-10
2.36847e-14
6.36219e-06
0.00130768
5.73741e-10
1.59628e-08
1.39419e-05
1.71361e-14
3.58213e-05
0.0434919
0.027836
0.00735731
1.33956e-05
0.0438956
1.32831e-05
0.00137895
1.9216e-05
0.000163687
0.0316667
0.0169692
2.17221e-06
0.0291197
7.35806e-16
1
1.07417e-08
0.000408009
4.46718e-10
6.48755e-06
0.00191375
3.43744e-07
0.000681528
0.000178838
5.73741e-10
0.0377396
0.0179083
3.71195e-06
2.86046e-08
3.62341e-10
3.2574e-05
0.000260177
0.00220436
4.59137e-05
0.455835
0.00740962
0.007305
0.0434919
1.32895e-05
1.32678e-05
6.78045e-16
2.62447e-06
1.17364e-05
0.00609892
1.10598e-10
3.82003e-14
3.03131e-05
7.18066e-05
4.54231e-10
0.00990688
0.00334629
2.30707e-06
4.50056e-05
1.43689e-07
0.197164
0.000425546
0.0437627
3.51002e-11
1.34636e-05
1
8.44333e-15
0.0271858
1.31248e-05
1
2.52994e-05
7.5663e-12
1.39615e-05
0.000334129
0.000178838
0.000266365
0.00424996
6.95667e-07
4.14622e-10
1.21308e-05
0.00547768
1.65223e-14
0.000417138
0.514742
4.35193e-09
8.17277e-06
0.0295072
5.04396e-12
0.0292239
0.00538696
2.68302e-08
4.01864e-11
7.85062e-07
0.0156229
0.000101619
2.52251e-05
1.58737e-14
0.000211457
0.478576
1.03112e-07
7.17146e-05
3.13582e-09
0.996474
1.3717e-07
0.0415548
0.0101985
0.000145296
4.16569e-07
0.00238496
1.3273e-05
0.242549
0.000672682
1.06777e-14
2.62447e-06
7.75521e-05
0.00735731
0.00244261
1.92668e-08
1.72502e-11
0.000648047
8.53635e-06
3.58475e-11
0.00740962
0.472829
2.65283e-05
2.59082e-14
0.043662
0.9992
0.232047
0.0266391
0.000820723
4.51363e-05
1.79773e-05
3.30389e-08
4.25301e-10
0.000196883
0.00648594
1.78637e-10
1.12635e-11
0.0296994
3.26755e-14
4.6296e-06
1.3853e-05
3.21733e-05
1.35432e-05
0.00145699
5.33178e-08
0.00818109
1.36984e-05
0.0400476
0.000149262
0.000449743
1.46242e-05
0.0067465
4.2241e-11
0.995399
0.0012265
0.448086
1.14948e-09
1.26528e-06
9.87187e-13
0.000121694
2.81314e-05
0.000675971
0.000776262
7.5397e-08
0.00740962
0.0289663
0.0432725
0.0987466
1.18077e-05
0.0040125
0.000725301
0.00193299
3.04476e-10
6.57381e-16
6.81608e-14
0.000980523
2.22077e-08
0.00965617
0.00527483
0.0437627
6.14396e-06
4.00489e-08
1.58795e-05
0.224931
0.00740962
2.45398e-15
7.16859e-11
6.17189e-06
6.31367e-06
6.77145e-14
0.998421
0.000376788
5.19293e-06
0.0108331
4.73506e-05
0.00485161
0.605483
0.0143898
2.48254e-05
7.69127e-07
0.0295072
0.998971
0.000126839
0.00438335
0.00352162
0.995634
8.42589e-15
1.58749e-11
0.00015983
3.80081e-10
3.31457e-07
0.00119293
1.41162e-11
8.01605e-05
0.0117781
1.58795e-05
0.432574
0.000709964
0.704152
0.998041
0.929558
0.00388539
3.42415e-06
0.0230098
0.00394756
0.0824382
0.00888747
0.00506649
0.0150039
4.31399e-17
4.97897e-10
2.06864e-10
0.00144569
4.52268e-12
0.0119204
0.000725301
0.0148386
4.11886e-14
0.00486283
0.990656
0.0635694
1.34046e-08
0.334546
0.0432725
0.000140239
5.07641e-08
0.0148386
0.00777663
0.994557
2.04696e-06
0.000548099
2.43702e-13
0.000243898
0.000126839
0.285271
0.549302
0.197853
0.876721
6.20135e-10
2.88949e-05
3.55776e-12
0.00261587
0.00105497
1.10676e-08
9.2748e-05
5.15199e-06
3.75987e-07
0.00527039
5.84659e-05
6.37283e-06
3.76413e-16
0.0137507
0.000347338
0.000123547
0.00734342
0.972275
1.3907e-11
0.00683977
0.000675436
1.79773e-05
0.01345
0.000176317
3.75987e-07
4.61161e-11
3.12212e-14
4.43819e-10
0.0213347
1.08202e-06
1.61571e-10
0.984379
0.00207719
3.17999e-05
0.710506
2.71751e-05
6.60932e-05
3.55779e-12
0.000200222
0.363864
2.75243e-06
6.17718e-05
0.00249472
0.00270268
3.36684e-11
0.0120692
0.0136108
0.00133803
0.000398431
0.000431653
0.00738513
0.0361217
1.03075e-05
0.0109835
0.0141227
0.000831813
0.0142898
5.69557e-05
1.79773e-05
0.990215
0.0148386
0.000105215
6.55289e-16
0.000139824
0.528825
0.107226
0.994034
1.11128e-11
6.06151e-12
0.00399255
3.61776e-06
0.000123547
0.00116476
0.014008
0.00462906
0.00103407
4.3126e-17
0.99656
3.15898e-11
0.00719515
1.10962e-12
1.14865e-07
3.44408e-05
0.928849
0.989079
1.50632e-08
5.97868e-07
0.00149841
0.00295878
0.000123547
1.73904e-06
2.23654e-05
0.999998
1.48509e-10
0.978492
0.000188027
6.22615e-06
4.38917e-10
5.70421e-05
0.000171674
0.000131849
0.978323
3.76038e-15
0.00113029
0.00280845
4.3126e-17
8.60274e-05
8.01605e-05
0.482797
0.115448
0.000111861
0.00613427
5.88187e-05
6.71296e-11
0.164832
0.000915101
0.928393
0.00160434
1
0.000146739
0.000566299
0.00628987
1.96958e-05
0.00340684
0.352233
1.86569e-14
0.0056234
1.83287e-16
0.990578
0.000977751
0.751823
0.436627
0.000419409
0.0137318
4.32587e-11
0.00243526
0.0998625
0.131874
0.000527793
0.00289451
0.000123547
0.00154865
0.00314205
0.00173463
2.85669e-05
0.56193
4.91922e-06
4.3126e-17
3.71645e-10
1.23953e-10
0.0108204
0.0882486
0.990215
0.00370413
1.72151e-11
0.000130023
0.00159625
2.72236e-06
0.154425
0.0107502
1.18532e-05
6.68399e-07
0.000814829
1
0.00559127
1.24952e-08
1.38061e-06
4.54442e-06
1.30984e-16
0.000154435
0.304154
0.00156685
0.00099949
0.990504
0.000448857
0.00563525
6.17718e-05
0.000797457
2.83493e-07
0.183636
5.21696e-09
0.132536
0.000826107
0.990578
8.82615e-06
6.73588e-05
2.33907e-16
2.03326e-06
0.0139427
4.34868e-09
1.58071e-09
2.83587e-05
0.0001883
9.43736e-06
0.000943323
0.00393778
3.96838e-06
3.38262e-07
2.7918e-07
0.000456386
5.32297e-17
3.23909e-10
0.0152412
0.000199414
3.3029e-06
0.998923
0.0134648
0.000146889
7.34795e-07
5.95283e-17
0.00111863
0.0170003
0.0056505
1.53933e-07
0.0276114
6.23771e-12
9.30484e-11
0.000798836
9.71211e-11
2.52707e-05
0.988689
9.3374e-05
0.951526
0.000154435
0.514649
3.11343e-05
5.89784e-06
0.00104235
0.952334
2.02683e-08
5.94461e-11
0.000952694
5.86794e-09
0.000772237
0.655854
0.0054229
4.49426e-17
0.000205658
0.00133711
0.000363585
0.00210238
2.70391e-15
1.14193e-05
4.64391e-15
0.999975
5.27233e-11
1.72617e-09
0.00288532
0.00101124
1
9.11643e-07
0.00299355
0.000408377
0.00542211
9.49676e-07
5.35842e-06
2.12638e-07
0.990578
2.32364e-16
0.00564991
3.50094e-06
1.66683e-05
0.00529324
0.280101
3.40319e-14
5.86794e-09
0.00198161
7.31799e-07
1.96853e-12
5.12842e-05
2.10768e-07
0.473051
0.00145532
0.99034
0.00124905
7.46827e-16
4.89752e-06
0.000213109
3.16592e-05
0.0104716
1.19637e-06
4.68314e-17
0.000322044
1
0.000409467
4.4305e-07
2.91881e-05
0.00425644
1.2685e-08
0.00160896
0.00191317
1.41506e-07
2.70869e-11
2.55454e-08
1.18065e-08
0.00314289
3.49256e-16
0.742189
3.7628e-06
1.00551e-07
3.92658e-09
1.17522e-10
0.0056234
9.84851e-06
6.37077e-05
0.24477
5.34198e-13
0.000280251
0.00285352
0.00211474
0.0013311
3.03193e-07
0.979057
0.00064621
5.76987e-09
0.0015278
6.98063e-07
1.02149e-10
0.000198269
0.0051523
5.60815e-05
0.990336
0.0022948
0.00026084
3.81355e-15
3.38976e-14
0.00251805
0.00095985
1
1.31292e-12
0.000478259
1.01763e-16
7.14485e-06
0.00017692
0.00299355
0.000292494
0.0020442
0.00341425
5.5571e-07
4.04133e-06
0.622035
0.000401393
3.58199e-07
0.00243446
-6.41268e-08
2.42977e-16
0.000449195
2.26574e-14
0.294573
1.15286e-05
0.00048784
0.00135859
9.03279e-07
0.933586
0.00557803
6.26844e-06
0.00341303
0.0169901
-1.77643e-07
5.86794e-09
0.719217
6.0649e-05
0.33336
0.547984
3.48437e-05
0.524381
3.17371e-15
1.25478e-06
4.79338e-07
0.150135
1.13213e-07
5.55051e-08
0.00124192
0.000879622
0.45715
1.41315e-16
1.23978e-05
2.28901e-14
4.34509e-05
1.68598e-05
4.6656e-06
0.00131096
2.54862e-05
4.16003e-08
0.107373
0.00296456
0.00207482
6.37668e-06
4.56964e-05
0.0022948
2.06075e-08
0.000675984
0.916325
0.112316
5.44747e-07
0.0013477
5.84129e-08
1.03602e-15
4.7129e-05
4.8754e-08
1.56897e-15
5.56924e-08
6.59307e-09
0.000268002
0.000330948
0.00187548
0.517162
1.16342e-06
0.000333798
2.20116e-07
0.318247
0.00456982
2.1988e-11
9.08514e-10
0.999954
3.17778e-05
0.544425
1.19957e-05
0.000600348
1.18158e-10
3.04039e-11
3.30891e-05
0.000727486
1.18734e-06
0.00102981
2.41584e-08
1.84118e-07
2.41248e-09
0.999984
3.92366e-16
7.59737e-18
1.0903e-06
1.99932e-06
1.51907e-09
1.22952e-10
5.36631e-05
0.298166
1.12666e-06
8.03078e-12
1.35816e-08
0.00232225
0.00746182
1.59989e-06
5.33215e-11
0.0533049
6.66195e-05
2.77716e-05
0.0048336
5.20703e-05
3.92291e-08
1.83206e-05
3.35534e-05
2.52605e-14
2.72256e-05
0.000448668
2.79721e-07
1.3372e-06
3.97084e-10
0.148553
2.33014e-06
1.5935e-12
3.72566e-09
0.000932059
1.08146e-08
1.98485e-09
8.66866e-08
6.31092e-05
1.15965e-05
1.88475e-08
2.99405e-07
0.00264091
2.59039e-17
1.7171e-05
1.1013e-05
8.09591e-15
0.0861624
1.66173e-06
0.0490824
4.72892e-07
-1.07836e-08
4.17588e-07
2.18843e-08
0.0001075
0.00034133
8.7579e-08
3.84575e-05
1.78219e-12
1.68051e-05
6.38226e-07
0.264454
8.34805e-05
1.63777e-08
2.20315e-18
0.00125136
8.91714e-06
2.94363e-07
7.75154e-07
2.3498e-05
5.5164e-13
3.08205e-06
9.88636e-07
5.03632e-06
0.00106224
2.46862e-12
5.77665e-09
0.0486493
1.98726e-08
8.68788e-07
1.99889e-07
5.47053e-13
1.0704e-06
1.08122e-05
3.76446e-07
4.79242e-07
2.69947e-05
6.43134e-07
0.0467853
6.90554e-10
9.71211e-11
9.71211e-11
3.74945e-08
0.000152295
7.85121e-08
4.20585e-10
2.30502e-09
1.20303e-06
2.04251e-07
3.09321e-05
0.000136218
3.13175e-11
4.53493e-11
0.0113509
3.56185e-07
5.69779e-09
2.51391e-13
1.83211e-18
5.21759e-05
2.39879e-09
1.65531e-06
2.09526e-08
1.8577e-09
7.12042e-08
3.25513e-11
3.59249e-13
0.00958701
2.39628e-08
0.000296153
9.11647e-10
0.0010032
2.30702e-06
2.36049e-07
4.17525e-14
1.14985e-07
6.5618e-07
9.37474e-07
0.968959
3.48645e-08
5.21548e-14
1.02611e-06
4.25818e-06
2.12165e-07
7.78911e-12
0.00101686
1.43506e-09
0.764818
0.000657115
7.67173e-08
2.98927e-06
2.42129e-16
4.18583e-07
0.855357
0.00506397
5.3187e-05
1.35369e-16
7.61627e-07
7.16941e-11
3.07332e-09
1.01506e-07
0.0117771
3.5299e-06
2.72541e-05
4.37827e-06
0.999888
1.20279e-10
7.81191e-10
5.22306e-10
7.43036e-07
2.18734e-05
8.62446e-08
2.041e-06
1.12583e-09
0.00044559
2.57931e-08
7.94451e-08
1.07277e-07
1.79795e-16
8.20805e-10
-1.70526e-07
0.918613
9.62494e-06
1.18513e-08
1
-5.6396e-07
3.7972e-10
4.82309e-06
6.14801e-10
7.37204e-07
1.65568e-06
6.94483e-10
7.71215e-09
2.2972e-09
1.4128e-08
1
4.57997e-18
8.26763e-07
1.03009e-08
2.38064e-08
0.00211296
4.58953e-05
0.0101361
0.949148
8.76335e-10
7.90077e-08
1.98395e-11
0.999999
0.984146
2.76211e-08
-7.42351e-08
5.4738e-09
0.972535
2.82831e-05
0.00038154
1.62209e-06
5.608e-10
1.19532e-17
2.25236e-11
5.56218e-09
1.15918e-08
2.67215e-12
-2.55962e-10
3.74132e-06
4.70761e-11
1.23627e-09
3.44425e-09
2.80453e-10
3.22604e-09
9.10899e-06
2.66297e-08
0.00338996
0.00174183
1.5721e-07
7.84618e-10
1.28423e-05
1.28138e-10
0.004988
0.000127213
3.47971e-10
8.22889e-06
1.30208e-10
5.221e-10
2.99898e-07
2.68364e-12
0.999998
1
6.1934e-06
5.02582e-10
1.65508e-10
2.83148e-05
1
1.51326e-08
1.05633e-05
1.43644e-08
4.99946e-09
7.34713e-10
3.59171e-12
4.00099e-09
4.49455e-13
0.00147929
6.95466e-08
2.23337e-15
1.76701e-09
1.74475e-06
-2.32674e-09
9.96762e-09
0.000300101
0.000117313
5.20603e-10
3.24786e-12
0.00057739
3.14908e-11
1.81381e-18
-2.10639e-09
9.94836e-11
2.12707e-07
-4.85448e-10
1.91943e-12
2.77337e-09
5.39925e-10
1
1.32424e-08
1.67451e-06
2.02441e-11
5.16653e-11
5.62591e-10
2.34375e-10
1.79108e-06
5.12047e-09
1.057e-09
1
2.56314e-08
2.94485e-11
3.34352e-16
3.98128e-10
1.70238e-12
3.93374e-10
4.44306e-11
1.40286e-11
5.48106e-13
0.335563
5.65947e-10
0
3.58886e-11
1.67879e-07
8.85892e-13
1.32657e-08
5.49728e-06
2.0038e-11
1.00936e-10
2.24258e-11
3.12695e-11
2.38972e-05
3.09931e-06
2.52605e-12
2.66464e-12
3.23344e-08
5.39302e-10
1.78468e-09
4.2235e-09
4.23299e-07
2.95903e-09
3.14404e-05
3.82436e-12
0.000158503
1.05516e-07
6.74717e-14
4.56937e-14
1
6.15356e-09
7.75782e-13
0.000283384
8.69997e-07
3.17664e-11
0.221855
4.0967e-10
6.07592e-11
4.45979e-11
6.55519e-11
2.66672e-05
1.08176e-14
2.4018e-12
4.72506e-11
3.32032e-18
0.858996
0.85599
0.000231492
1
7.13762e-13
0.00116624
4.46989e-10
6.42882e-11
5.27377e-11
1.4372e-10
7.573e-11
1.7549e-08
0.483252
1.22211e-10
1.18985e-05
1.05758e-05
2.90107e-11
4.72784e-11
1
2.41708e-16
4.02645e-10
3.27004e-08
-1.92752e-12
1.39002e-10
4.07207e-07
1.0703e-10
1.94285e-09
0.000565777
1
1
1.07012e-10
8.84271e-10
1
5.964e-11
-2.44422e-11
0.985359
1.02215e-10
2.94337e-12
1.02215e-10
9.66633e-13
0.672462
1.12464e-10
2.17508e-10
0.264134
5.19963e-13
1.77446e-12
1
1.19901e-17
9.04218e-11
2.9623e-10
9.00735e-05
3.14891e-10
1.3089e-10
2.54929e-11
2.82896e-10
9.63117e-11
7.94722e-09
0.00752438
-1.83181e-09
3.26141e-10
6.66473e-11
0.999997
2.2704e-10
-2.80387e-14
1.16881e-11
2.83331e-05
0.00969303
0.000746944
1
4.99667e-11
5.35498e-10
9.43371e-12
6.8288e-09
2.26778e-11
1.29758e-10
4.22597e-08
6.25102e-12
3.16715e-09
1.81355e-18
-4.62265e-15
1.96329e-10
5.26438e-07
3.9794e-14
1.42415e-14
1.85262e-12
6.25294e-11
1.41422e-10
1.0396e-08
8.41634e-10
-5.29167e-17
1.28335e-10
9.87505e-10
1.67847e-10
7.0777e-10
3.57353e-18
1.23038e-11
1.52238e-29
6.03752e-11
2.88401e-11
9.56174e-11
9.17378e-12
9.36968e-10
3.53752e-09
-5.20127e-12
2.41929e-11
1.86694e-11
5.36552e-09
0.428697
-2.53439e-11
1.58358e-15
6.15681e-11
2.10223e-10
-3.06845e-16
7.63258e-11
1
2.8779e-11
1
5.6213e-12
3.39502e-08
1.46102e-10
1
4.39536e-14
3.4535e-14
1.91716e-18
1.61719e-11
1
-5.90137e-12
1.1505e-11
1
3.67734e-05
0.00045683
0.997543
-3.40065e-11
2.07309e-13
3.91696e-11
1
-2.91999e-13
-3.57035e-13
6.16127e-09
1.30957e-10
2.2863e-05
-4.38711e-11
-5.04476e-13
3.16831e-12
-1.76145e-11
-5.27605e-13
2.00045e-05
2.62388e-14
1.94322e-11
8.91216e-11
3.55175e-12
-2.80027e-14
8.41069e-12
1
2.22049e-10
7.33742e-12
1
1.21554e-10
2.54014e-10
1.0703e-10
-4.32773e-11
1.62446e-10
1.08264e-10
8.70024e-11
6.80161e-14
1.02215e-10
-3.43488e-11
-1.0225e-13
1.74361e-08
1.10792e-10
9.79627e-11
4.63166e-13
0.00482505
-5.26462e-11
1.73906e-10
7.45121e-12
-3.02758e-12
2.99641e-11
0.997776
0.643523
0.702032
6.60183e-11
7.91498e-13
1.91613e-11
-1.06655e-12
7.42661e-14
7.97481e-16
1
5.3617e-14
1.29433e-11
-3.78969e-11
6.34827e-14
5.57897e-09
1.00109e-05
1
3.71147e-11
8.68585e-14
4.13721e-11
9.81285e-05
-6.21573e-14
-5.33633e-12
-3.41608e-11
-4.85923e-13
1.14768e-11
4.21055e-10
8.78938e-10
5.6135e-12
0
1.33411e-09
3.04645e-11
1.0104e-11
-1.78633e-11
2.34939e-11
1
3.4257e-14
3.4257e-14
2.70294e-13
1.69751e-06
-1.22992e-14
6.32158e-12
-3.84939e-11
-3.26588e-11
8.65097e-10
-1.28136e-13
8.82198e-14
4.01578e-12
1.26336e-11
4.7242e-09
1.67148e-12
-1.81858e-13
6.29231e-12
2.19804e-09
5.13275e-13
2.34994e-11
9.9036e-13
0.999929
0.999991
1
-3.85359e-13
1.05589e-11
-1.14287e-11
-1.11181e-11
3.59304e-14
-1.28746e-12
1
4.97361e-06
1.09645e-17
-1.68904e-11
9.93725e-13
7.48344e-11
5.71204e-15
4.83016e-12
-1.16033e-11
1.03957e-13
4.50526e-14
3.57353e-18
3.57353e-18
2.23648e-15
1.10315e-08
1.91144e-11
-6.40181e-15
5.91106e-12
2.86624e-11
1.6846e-12
1.01183e-10
7.77493e-12
2.00017e-13
1
1.81014e-12
1.19163e-11
1.33984e-08
6.95878e-12
8.60466e-14
1.5128e-05
1.75708e-12
-1.04246e-11
-8.37687e-12
5.33804e-14
3.75379e-16
1.06056e-13
1.52169e-13
3.81992e-12
3.18294e-11
6.28676e-14
-1.45097e-14
1.12752e-14
7.35515e-14
2.07564e-10
-5.21196e-12
1
2.52862e-12
4.9933e-13
1.33198e-12
-1.66663e-15
6.40256e-13
1.62864e-12
3.88851e-09
5.57897e-09
9.36296e-13
1
7.9997e-12
2.7737e-12
-7.01259e-13
-9.83921e-13
-5.41469e-12
-6.45586e-13
1.02572e-13
-5.38051e-13
1.62952e-11
1.66465e-15
6.43977e-14
1.08911e-17
-1.50274e-13
1
1
4.45135e-13
7.82084e-14
-1.94601e-13
1.60642e-06
0.0333809
-1.06534e-12
1.55199e-13
8.19701e-13
1.0649e-13
-1.29843e-12
2.08154e-12
4.79275e-12
6.92325e-12
1.46543e-13
2.32297e-34
9.01414e-17
2.01631e-14
-3.11557e-15
-7.51186e-15
1.78343e-12
-1.84412e-14
-4.1078e-13
-7.34509e-13
-1.9895e-18
1.49098e-06
2.06698e-18
2.65593e-15
4.52742e-15
1
1
3.62792e-11
-6.54211e-18
4.68682e-13
8.69228e-13
6.06707e-13
3.91129e-12
1.83079e-12
3.28344e-12
9.08121e-13
7.07181e-14
1.42112e-13
1.88516e-12
2.93679e-14
-9.69118e-15
2.12073e-15
-1.15394e-16
1.47563e-12
-9.5155e-13
2.90346e-14
-6.9406e-13
1.22312e-13
1.42134e-13
4.51523e-17
-7.23076e-16
6.9789e-14
4.74343e-15
6.94519e-16
1.2631e-13
-5.80085e-13
-3.30177e-18
3.50919e-17
3.84823e-13
5.81497e-14
1.22153e-13
5.86878e-14
1.60188e-06
3.23979e-14
3.81231e-15
3.84099e-19
4.07491e-16
7.25927e-36
3.18459e-16
1.58626e-13
4.37911e-13
1.98675e-14
-4.38424e-15
-3.54674e-20
-2.21811e-13
-3.07766e-18
4.18414e-20
3.01852e-14
4.55636e-19
1.03258e-14
-4.28719e-20
0
5.65626e-20
4.96288e-18
7.51839e-15
2.54543e-16
1.85869e-15
1.02343e-13
5.68817e-18
1.34414e-15
1.86918e-21
8.80525e-20
1.90046e-16
-3.04063e-17
4.11197e-26
1.55338e-26
1.55338e-26
2.02688e-18
1.69487e-15
1
1
8.81861e-39
1
9.51524e-22
1
1.96885e-15
5.07197e-16
1.24594e-14
6.75271e-15
1.93776e-14
8.44141e-13
2.86075e-18
6.15894e-17
2.40269e-12
1.58867e-12
5.28715e-20
2.58948e-21
7.94036e-13
2.29601e-24
7.78731e-23
1.05219e-18
1.44449e-17
5.16473e-26
4.19476e-22
1.64862e-21
1.84389e-21
4.61821e-20
4.42265e-19
7.83051e-20
6.51096e-16
2.25648e-17
3.60907e-11
1.48396e-14
5.75193e-14
3.19822e-14
3.99589e-07
8.33189e-08
0.999999
0.686472
0.999814
2.19804e-09
8.26735e-08
0.00540014
1.22512e-05
4.1697e-08
1.16969e-08
0.999977
4.72329e-11
0.999981
0.924807
2.19804e-09
0.999969
0.0679981
1
0.999991
0.0216748
1
0.992049
0.0391193
0.999993
2.11697e-07
2.3786e-06
1
1
1
1
1
1
0.897118
0.999596
0.999999
0.954871
0.969733
0.969733
0.999996
0.0210674
0.478717
0.772828
0.910251
0.159261
1
1
1
0.547497
4.25232e-11
0.688946
1
0.999983
0.868708
1
1
1
1
1
1
0.999998
0.999975
0.999923
0.00767005
0.94706
2.39604e-11
1
0.969729
0.137061
0.969552
0.999995
0.795321
0.00832124
0.95378
0.999992
0.991506
0.969733
0.999998
0.825697
0.993667
0.775345
1.00993e-11
0.999992
0.00870276
8.1153e-09
0.426455
8.37216e-12
0.510861
1
0.868708
0.986033
0.018075
1.62346e-10
1
1
1
0.0295967
1.09559e-11
1
3.16628e-11
0.027773
1
0.00952233
1.99465e-11
0.445997
0.227848
0.265721
0.936686
0.936924
1
0.0231843
1
1
1.51315e-10
)
;

boundaryField
{
    patch0
    {
        type            zeroGradient;
    }
}


// ************************************************************************* //
