/*--------------------------------*- C++ -*----------------------------------*\
  =========                 |
  \\      /  F ield         | OpenFOAM: The Open Source CFD Toolbox
   \\    /   O peration     | Website:  https://openfoam.org
    \\  /    A nd           | Version:  8
     \\/     M anipulation  |
\*---------------------------------------------------------------------------*/
FoamFile
{
    version     2.0;
    format      ascii;
    class       surfaceScalarField;
    location    "0.55";
    object      alphaPhi0.water;
}
// * * * * * * * * * * * * * * * * * * * * * * * * * * * * * * * * * * * * * //

dimensions      [0 3 -1 0 0 0 0];

internalField   nonuniform List<scalar> 
2805
(
-2.7135e-07
5.74556e-05
4.69798e-06
4.40386e-09
-2.67207e-07
-5.98944e-09
0
1.66818e-08
6.03417e-10
-9.50332e-11
9.36121e-09
1.11747e-09
-2.12997e-12
6.05624e-10
7.05366e-14
-1.62796e-12
-1.49196e-10
2.61802e-10
-3.06696e-11
-1.24109e-12
-6.76439e-08
5.10779e-08
-5.51796e-13
1.00868e-11
-3.42941e-14
-3.70891e-13
-0.000709994
-9.90266e-05
0.000812699
-1.24492e-13
3.11259e-13
-6.83272e-06
3.24692e-06
-4.04597e-06
3.61579e-07
-3.07691e-06
0.000358987
-0.000648829
-2.057e-14
-4.17359e-14
0.000174535
-0.000118109
-9.77887e-13
1.00225e-12
3.64323e-05
-0.000349805
0.000313713
-3.09225e-06
4.6719e-06
-1.12797e-06
-0.00165606
0.000156898
0.00149506
-1.02206e-12
-3.06563e-13
-2.72365e-05
1.79446e-05
-3.10075e-08
2.89017e-07
5.45382e-07
-2.48531e-08
-7.48111e-09
1.01399e-06
-5.26543e-07
-3.00119e-08
-2.19746e-09
5.14977e-09
-6.05497e-09
-4.69337e-09
0
4.69173e-09
-0.000173586
-0.00146666
-1.42565e-07
-1.20076e-05
9.82217e-07
2.17535e-09
-9.87942e-07
-0.00106727
0.00143305
1.31038e-07
7.67164e-07
-0.00223387
0.00242136
-7.15392e-08
0
-1.10019e-08
6.73671e-09
-6.45352e-10
-2.81408e-09
-0.00121111
3.88828e-08
-5.17404e-08
-0.000665271
0.000703719
4.66265e-07
0.00203798
-0.000543419
1.23462e-13
6.34874e-13
-4.93727e-13
-6.56076e-09
2.02422e-09
4.41639e-09
-0.000155414
3.08924e-06
6.05665e-05
5.4595e-13
5.92572e-13
-8.12113e-13
-0.000200687
-0.000674299
0.000874986
-5.13721e-06
9.55527e-05
-9.04155e-05
0.000427527
-0.00264732
0.0017997
-0.00050809
7.95951e-06
4.03225e-06
8.78253e-05
-0.000525523
-1.37742e-08
7.25002e-09
-8.53986e-10
-3.24249e-08
2.96802e-05
9.34917e-13
5.59879e-07
-5.58296e-07
-5.77642e-08
4.61236e-07
-1.3203e-06
0.00100788
0.00102893
-8.72558e-08
2.12648e-07
0.00205751
-0.00105068
-2.26725e-10
-1.77357e-10
1.71437e-10
3.39154e-07
2.65628e-05
-4.06906e-13
1.31163e-12
1.2058e-08
-4.50723e-09
-5.4524e-09
-0.000347378
-0.000938945
-9.45772e-11
-0.000672788
-0.00198748
3.96421e-05
5.13579e-06
-6.54782e-05
8.27208e-09
-7.63534e-09
-1.59136e-09
-1.19521e-12
3.44701e-13
1.95261e-15
-1.19501e-12
3.19129e-05
-5.63633e-05
1.25736e-05
6.24711e-13
-7.27005e-13
-7.07844e-16
2.42954e-15
-5.16957e-13
7.67991e-14
0.0013749
7.18796e-15
-6.41188e-15
5.64057e-16
3.90549e-08
-2.93174e-08
-9.57375e-12
7.75362e-12
1.85101e-12
-0.00032053
0.000119513
0.000103627
0.000442863
-3.24956e-05
3.24579e-08
2.30878e-07
-2.29206e-07
-0.000205824
2.03451e-05
2.19122e-05
5.02124e-08
-2.42134e-08
-8.15753e-07
3.33381e-07
-4.11458e-08
2.58815e-08
-1.43065e-08
2.74062e-08
2.54974e-05
-3.028e-06
1.02113e-08
4.87881e-08
-9.91521e-14
8.84981e-13
3.795e-14
-2.796e-15
-2.40966e-06
2.36416e-06
1.37556e-06
3.76232e-05
-1.16831e-08
2.1151e-08
-7.87626e-09
2.08558e-05
-3.24911e-06
8.51636e-07
-3.44006e-07
-2.64939e-06
2.35683e-08
-2.72434e-08
-1.18019e-14
8.60887e-15
1.30817e-14
-1.5727e-08
-7.72495e-09
2.20076e-08
-2.1477e-07
2.06331e-07
-3.40266e-07
5.22098e-07
-5.64708e-07
-3.78934e-13
4.35421e-13
2.1068e-08
-5.57092e-08
-5.81519e-09
9.46574e-12
-1.07194e-09
1.05312e-09
-1.59222e-13
-4.70409e-14
-0.000158098
0.000299174
1.04555e-08
2.34486e-06
-2.90964e-08
0.000618025
0.000952905
-0.00141344
-6.99126e-14
-6.21381e-06
0.000149617
-0.00137214
0.00133204
4.01024e-05
0.00040927
-2.21106e-05
-2.03272e-09
-4.02909e-09
4.6921e-07
6.59818e-07
-1.10417e-06
-3.82314e-06
-4.21532e-05
5.03745e-16
-1.45016e-15
-2.92177e-08
-0.000448529
0.00109136
-0.000642828
-5.82566e-14
-1.3838e-13
3.78632e-09
-1.25842e-05
0.000104902
-3.41847e-06
-6.12617e-14
-2.30121e-05
9.49372e-07
-9.39354e-07
2.61689e-08
-1.82317e-08
3.20046e-11
-3.29421e-11
5.14456e-08
3.24513e-08
2.87364e-08
-0.000121837
0
4.19955e-05
-3.78169e-05
-1.71337e-07
2.08292e-07
-0.000670511
0.000221982
1.43246e-07
9.04502e-06
2.28486e-06
-6.23704e-06
0.000508195
-0.000675535
-9.52487e-10
9.59001e-10
-0.00137214
-2.31756e-05
4.89868e-06
-2.15627e-07
2.45414e-07
1.2287e-09
-2.89594e-07
9.74597e-07
0.00120585
0.000126185
-2.57633e-08
-2.78072e-13
5.03577e-13
-2.20803e-12
8.57385e-06
-7.65567e-06
-1.23691e-09
-5.13753e-13
-3.85606e-09
1.90491e-08
-0.00138269
1.05486e-05
-2.81595e-08
6.16856e-07
-2.55517e-07
-1.30926e-07
7.59543e-07
-4.04573e-07
0.000419364
0.00078649
-2.2856e-14
-4.12953e-14
-1.69898e-08
3.33523e-09
-1.38366e-09
-2.65549e-10
2.58055e-08
-2.24459e-15
-2.85518e-15
2.03078e-06
9.24765e-11
-3.68145e-06
-2.42214e-06
6.72541e-06
-1.26224e-08
-0.000247719
-2.21406e-05
0.00185524
0.000550759
-2.58133e-08
7.41931e-08
4.30873e-07
1.35027e-06
-5.29732e-07
-2.22447e-06
1.50716e-05
-1.22354e-14
5.76047e-15
1.33523e-14
-6.61967e-09
1.15821e-06
8.12755e-05
-0.000755574
2.79542e-07
-2.17487e-06
2.96101e-05
-4.6601e-05
8.52639e-08
0
-7.68885e-08
-4.13333e-14
-5.3672e-13
8.94814e-14
-3.77162e-07
4.08037e-07
-3.10818e-12
-6.54802e-15
-6.90083e-14
-7.67398e-12
3.78075e-09
-1.10097e-08
-0.00138269
1.22802e-09
3.86909e-09
-3.6722e-09
-6.12409e-07
1.82536e-05
0
-5.83767e-07
-1.88683e-05
4.07508e-05
4.04502e-05
3.66272e-07
-1.3159e-07
1.19136e-11
-1.52319e-11
1.77417e-06
-1.14756e-11
4.06731e-12
-1.57419e-05
1.44168e-05
1.59372e-05
0.000146656
-0.00140285
2.01605e-05
4.06576e-09
5.50235e-09
-5.25605e-09
3.2516e-10
-8.53119e-10
7.35346e-09
6.84829e-09
1.29742e-14
-1.467e-05
1.78096e-05
-5.48761e-07
-1.59816e-13
-1.75994e-15
-1.4358e-16
2.00553e-07
-1.33248e-13
-3.07846e-08
-2.17361e-08
2.50637e-08
-2.49339e-13
-2.50495e-09
7.48702e-09
-8.31432e-14
3.03517e-13
-4.50894e-17
-2.6482e-17
1.09006e-15
3.14283e-09
-7.68353e-10
5.04702e-06
-6.97662e-06
1.98281e-05
1.41292e-06
5.63841e-07
-1.65943e-06
1.26317e-06
5.78724e-06
1.5561e-08
-8.31267e-09
1.01848e-05
-3.99002e-10
-6.06869e-09
-1.26291e-12
1.03759e-12
5.82517e-09
-3.96863e-08
-0.00140285
5.21801e-07
-2.38905e-07
5.9926e-08
2.42831e-06
-5.13786e-10
3.09146e-11
1.93958e-05
-2.92718e-05
6.2645e-06
7.39757e-07
1.36563e-05
4.76327e-13
-5.48434e-13
9.35338e-11
-4.37564e-15
-2.65759e-17
-4.3367e-06
-0.000949999
-0.000452852
-5.59601e-12
5.69098e-09
-1.08349e-07
-1.08171e-14
-2.04615e-14
0
-2.58283e-07
-7.5779e-08
6.16048e-07
-8.60024e-08
-8.24509e-07
9.1559e-07
-4.11951e-07
-7.16857e-13
4.86283e-07
-6.28296e-09
3.15553e-07
-7.56005e-08
1.80525e-14
-5.07524e-07
3.58022e-05
-1.19445e-12
-3.5467e-16
0.000354304
0.000349477
1.78752e-16
-1.23924e-18
-5.21585e-09
-0.000318297
-6.33014e-06
1.57132e-05
-2.91134e-08
2.32206e-09
2.85769e-07
8.76039e-09
-1.91143e-08
1.02345e-06
-2.63057e-07
-1.50945e-16
-4.0532e-15
-6.39118e-14
-4.90079e-09
2.57076e-08
5.03996e-08
-4.75372e-07
0.000259852
-0.000949999
2.72164e-07
2.30337e-11
-6.61991e-11
2.90539e-05
0.000130717
-7.54737e-15
-4.73427e-14
-0.00109136
0.000141358
-5.16447e-11
5.05504e-11
-1.23876e-08
1.27636e-09
-1.70657e-08
-1.03276e-09
-9.65786e-10
1.39516e-08
-2.31609e-08
0
-4.05608e-08
0.000208762
0
3.25152e-07
-9.23321e-06
4.77174e-07
-1.49932e-05
3.3435e-05
-8.94171e-18
-3.31083e-07
-6.80284e-08
0
-5.64153e-10
1.79828e-06
-1.56393e-05
1.05444e-11
-1.0624e-11
1.77657e-07
3.73226e-08
-2.28065e-08
-0.000281809
0.000636739
-1.20363e-11
2.94899e-12
3.91703e-06
-4.01732e-13
2.7596e-05
8.59738e-06
0.000208969
-2.01967e-11
5.63294e-11
1.64978e-05
-3.15321e-05
-1.75873e-06
-5.58339e-14
0.000531828
-2.14737e-08
-4.35158e-11
-1.60523e-12
7.17142e-09
-1.78425e-13
7.76426e-06
-9.15701e-06
4.52686e-09
1.64091e-07
4.40769e-09
8.09139e-09
-1.64548e-08
2.59562e-18
-1.6638e-17
2.05471e-17
7.15807e-09
7.96814e-07
-6.90424e-13
-5.71025e-14
9.65429e-14
2.67614e-06
-6.29351e-10
-4.11149e-09
3.0736e-06
1.24311e-05
-8.895e-12
7.39441e-18
-6.55211e-18
-4.57231e-09
1.68688e-08
-2.54203e-09
7.96984e-13
-1.82424e-12
5.72275e-10
-5.07776e-10
-4.35243e-12
-1.69493e-17
-1.12738e-08
0.000109037
-8.60011e-05
1.28788e-05
-2.50683e-05
-2.50665e-06
-1.01589e-05
-2.19463e-08
1.26281e-08
1.03884e-08
-1.58576e-08
5.7728e-06
-3.42467e-06
7.03814e-07
-1.49426e-07
-1.62432e-05
1.70236e-05
6.1599e-10
-4.87829e-08
1.12698e-06
5.35832e-19
-2.67415e-17
-0.000408737
0.000921601
-0.000512864
-3.5347e-10
3.05131e-10
-4.28898e-07
4.48916e-06
1.02145e-08
-9.47658e-14
3.55316e-08
-4.18613e-08
-9.49522e-06
-5.54858e-07
-8.60275e-10
-8.84334e-08
-2.49919e-08
2.40844e-07
2.9512e-13
1.75151e-05
-2.4956e-05
1.81666e-05
-2.63729e-09
1.75356e-08
-1.90656e-10
4.84411e-14
-1.30901e-11
-3.8997e-09
1.20875e-06
-3.43239e-07
1.92858e-05
2.92832e-07
-1.01878e-08
6.68817e-05
-5.4463e-05
-1.486e-05
-1.36262e-05
0.000122835
-8.26565e-05
1.22449e-08
-3.21497e-09
-1.10209e-08
-3.63091e-19
-2.20207e-09
3.1701e-09
-1.77717e-06
-1.44965e-13
3.28667e-14
-1.75455e-16
-3.24455e-09
2.13407e-07
-4.52087e-13
1.54397e-05
-1.25196e-05
7.80515e-09
8.11769e-09
-8.87531e-08
2.47073e-10
-3.50172e-10
6.60294e-07
-2.33072e-07
4.10583e-05
-1.22744e-14
-3.6614e-14
-1.84466e-08
-0.00029437
-0.000376141
1.86918e-18
-6.57941e-18
-3.31327e-05
5.24887e-05
2.94767e-08
0.000419364
-8.67119e-09
4.05975e-09
1.39165e-15
-1.28888e-14
1.01832e-14
-1.02178e-08
4.90658e-07
-1.84009e-07
5.3736e-07
5.05197e-06
2.79694e-05
-5.37221e-10
-1.74414e-09
1.19926e-12
3.04011e-08
-2.33344e-08
-2.62929e-07
5.38182e-06
5.82484e-18
-1.50681e-16
5.33114e-08
-3.19385e-06
0.00107278
-9.94182e-06
-0.000516432
1.38972e-12
-1.50665e-08
2.25556e-05
-4.58494e-05
-9.62078e-16
3.21894e-05
0.000119057
-4.14123e-06
1.28671e-11
-9.51231e-10
-1.8936e-14
-6.11886e-15
-1.19907e-10
9.42976e-10
1.78566e-05
-4.97209e-05
5.75483e-07
-3.08996e-07
-3.50131e-08
-3.17791e-18
2.40353e-07
0.00140791
-0.00106024
-0.000256469
-9.74478e-12
5.30055e-07
-7.72126e-12
0.000411137
0.000516525
-0.000933207
-3.00899e-10
4.73178e-05
2.58027e-05
1.54533e-06
-3.75251e-07
-2.44765e-11
3.45595e-06
-3.79315e-06
1.17914e-08
-1.63657e-08
1.94336e-06
-3.45524e-07
-3.78704e-18
-5.90425e-09
1.18691e-08
-1.26218e-07
2.16399e-06
3.88315e-06
9.54242e-11
-2.97845e-14
2.33993e-14
1.32639e-06
1.32951e-08
1.53837e-14
-1.29263e-13
-1.70251e-05
2.47481e-06
0.00124345
0.000277994
-4.86508e-08
2.66576e-08
8.13349e-18
-2.19557e-18
0.000140718
-9.61473e-05
-0.000891803
0.00142526
1.64945e-05
1.79527e-05
-4.07213e-05
-1.70597e-06
1.3481e-08
-1.44219e-07
-3.2978e-09
3.70369e-08
-1.59717e-12
-1.16553e-13
7.48645e-07
-3.90935e-07
0.00100371
-4.27242e-05
3.08098e-14
-1.20568e-13
-1.0804e-14
-3.5008e-05
5.91252e-05
-1.82388e-19
-3.06314e-09
2.67755e-09
-3.7028e-08
1.00478e-08
9.78876e-08
-9.68928e-08
-5.1844e-08
3.13167e-08
-1.75208e-10
8.47424e-11
-8.86729e-06
-3.47086e-09
1.51335e-05
7.43356e-07
1.89043e-06
-2.93924e-07
2.48703e-08
-3.66282e-07
4.33629e-06
-1.03845e-05
-2.70984e-14
0.0010441
4.03985e-07
0.000249473
-3.75606e-13
9.67733e-10
-1.97595e-08
1.50405e-16
-2.77813e-15
-3.24434e-09
-4.54434e-07
4.07483e-07
1.89091e-06
9.55854e-08
4.0627e-08
-1.58031e-10
-1.42623e-05
-1.73175e-05
0.000135888
-8.42609e-05
-1.40622e-05
-2.81216e-07
-6.77804e-09
-1.70403e-05
2.53669e-07
2.40818e-06
-8.39897e-07
9.87065e-06
-6.89253e-06
1.00434e-13
-8.50974e-12
5.86992e-19
-6.14412e-19
-9.84875e-17
-5.56423e-06
-2.05929e-09
-4.8953e-06
-4.25052e-06
-6.9019e-06
4.297e-05
-4.06532e-09
-2.00683e-10
-3.28418e-08
4.05814e-05
-0.000530862
-1.42527e-05
2.1612e-18
-1.26396e-17
-7.00026e-14
2.80543e-08
1.13499e-08
7.77885e-15
-7.79034e-15
-0.00072158
0.00174967
4.9785e-07
1.13009e-08
-7.42246e-09
-3.04407e-05
7.53796e-06
-2.12717e-08
-9.72044e-08
1.07051e-05
-0.00090236
0.00224154
-2.13865e-05
5.92043e-05
-3.1544e-10
-2.62155e-08
-1.34823e-09
-4.48954e-05
1.14914e-05
9.09966e-07
-2.84414e-07
1.02207e-05
-7.9038e-06
2.52288e-07
1.88961e-07
-0.000312893
0.00168071
-1.40394e-18
7.87659e-15
-3.64188e-14
6.14799e-07
-4.21551e-07
-2.71689e-12
-1.17171e-10
-1.65655e-10
-2.40792e-10
-1.5343e-06
2.75595e-07
-1.21325e-14
-1.13909e-14
2.45798e-07
-1.18152e-05
3.84722e-06
-2.1525e-07
0.00129467
-0.000888345
2.25538e-06
-1.1823e-07
0.000599221
0.00112386
0.00101476
-1.12256e-05
-1.21632e-06
3.27902e-06
-6.28111e-10
4.13549e-05
7.42523e-07
-1.92573e-05
-1.1989e-05
4.19527e-06
-4.4074e-05
-2.09193e-20
3.54307e-13
-2.6985e-12
2.16799e-06
-2.64682e-15
7.8369e-06
1.65739e-06
-1.17947e-05
-3.02119e-06
1.87997e-17
-2.04395e-17
-1.30783e-06
-7.5522e-07
-0.00143786
0.00198812
0.000304365
8.49664e-12
-2.02677e-10
0.00173282
-0.000191149
4.37921e-05
-7.41718e-05
-3.42448e-07
1.88563e-07
1.01639e-11
-1.47536e-05
-1.90803e-06
2.64099e-06
0.00142608
-2.45286e-08
0
0
5.54108e-06
8.18076e-17
-6.85578e-16
-1.27855e-07
6.18965e-07
-2.49628e-07
4.38097e-05
-3.27531e-05
-0.000267629
0.000267707
0.00148834
-1.23934e-12
-9.56525e-08
-4.73475e-15
1.25273e-15
-2.12261e-06
3.79343e-06
7.71505e-07
1.01385e-08
7.59695e-12
-1.88809e-07
-7.49727e-10
1.95979e-08
-2.64064e-09
2.14254e-09
0.000648114
-9.3854e-05
1.06521e-07
-1.97378e-08
1.91452e-19
-3.02527e-19
-6.54423e-06
-4.12604e-05
0
2.48343e-07
2.41959e-07
5.79914e-06
0.00089862
-1.95641e-14
-4.40431e-15
3.41958e-06
5.67037e-07
-9.84747e-07
-1.01258e-08
1.61512e-05
-1.66453e-05
2.18817e-08
2.12442e-06
7.84145e-08
-7.89365e-08
4.14472e-14
-1.13236e-13
-1.81082e-19
-5.25823e-13
0.000137316
-4.28105e-07
-3.08237e-09
4.26316e-09
-2.14332e-14
-0.000811491
0.00193284
-4.34919e-06
7.57252e-07
-0.00151014
0.00218012
-2.03281e-07
1.36511e-07
2.80314e-07
-8.93526e-08
-9.23166e-16
0
0.000143005
2.05803e-08
1.13923e-07
1.34434e-06
-7.24744e-06
2.46127e-07
-1.61622e-14
-1.12019e-05
-8.94751e-06
-5.31778e-07
5.86147e-06
-4.36025e-06
7.29556e-07
-9.29367e-08
-1.46959e-06
1.62955e-07
-1.83659e-05
3.56181e-06
1.31183e-05
-5.42416e-08
8.32979e-08
-8.61593e-06
2.11165e-07
-1.73501e-06
-1.43464e-05
3.09568e-08
0.00117877
-9.73511e-06
-3.71817e-06
3.47085e-07
4.57245e-08
-8.88485e-20
3.32712e-07
0.000208007
-0.000259157
-0.000442321
0.00186035
-1.35254e-15
2.99657e-15
-1.71402e-14
-9.96525e-07
2.78585e-10
4.90925e-07
-3.59909e-07
-5.04535e-06
5.0995e-06
-2.00695e-05
4.18109e-05
5.03702e-06
-2.10778e-06
2.92502e-20
-4.99221e-20
-0.000373577
0.0014197
-1.22249e-05
-1.00915e-17
-3.31264e-09
-3.45846e-07
8.17669e-08
-0.000189222
0.00155262
-0.00136985
0.002273
-2.34798e-10
0
-1.74606e-09
-1.74297e-06
7.54546e-07
4.99387e-07
-1.35494e-06
2.05197e-07
-2.74416e-09
1.59594e-07
-1.32068e-08
0.000227335
-3.26733e-05
-0.000194662
1.82909e-13
-1.66056e-12
0.00147304
0
-1.40107e-08
1.30226e-13
2.29816e-07
-1.57159e-07
2.76372e-07
-7.93223e-07
0
0.000827119
3.68953e-18
-3.23259e-18
1.07094e-06
2.73956e-06
-1.12662e-06
5.33894e-20
-2.51065e-19
2.99082e-08
-3.41699e-09
-2.99639e-07
1.34519e-07
-9.54496e-05
-9.1554e-05
1.76847e-05
-1.602e-07
-2.60932e-06
-2.41551e-08
9.43779e-08
-2.08056e-14
3.27615e-05
-0.000279265
1.06487e-06
0.00155427
-5.6484e-09
0.000181633
4.57014e-05
5.67131e-07
-3.29108e-07
-1.83985e-06
-2.08348e-10
-3.10561e-08
3.13522e-08
-3.23441e-06
-2.59826e-05
2.45889e-05
-7.80921e-18
-9.65559e-06
5.63915e-06
-2.06686e-20
-0.000957334
0.00213763
-2.73789e-06
0.000123285
5.05544e-05
-5.89517e-10
3.51842e-07
-1.92414e-05
3.11705e-05
4.01732e-14
-9.02417e-14
-1.90393e-10
0.000208002
-1.98016e-05
6.50367e-06
0.000157069
9.04815e-07
-3.75075e-11
2.60425e-07
-8.98938e-10
1.09451e-07
3.60053e-06
-7.98903e-07
1.71537e-09
0.00078263
9.85432e-09
-1.00722e-06
-1.67105e-20
9.15013e-13
1.78539e-12
-3.05906e-12
-1.34403e-13
-1.79262e-05
7.16351e-06
0.000465357
-0.000245038
0.00131808
9.82524e-07
-3.70813e-16
8.11622e-07
-2.46729e-07
-2.43899e-06
1.15539e-06
-4.59343e-10
8.21991e-06
-3.08072e-05
0.000126047
-4.62342e-09
-1.95941e-10
3.10294e-10
1.46699e-05
9.43179e-05
-0.000388688
-5.46858e-06
7.95551e-12
-8.25002e-12
-2.76279e-09
0
-4.95557e-08
2.3177e-19
-1.05467e-17
3.11636e-07
-0.000193461
0.00111874
2.15337e-06
-2.17415e-06
6.24299e-06
-3.42362e-06
-0.000599826
0.00207443
5.8296e-07
-1.39241e-06
-1.0722e-05
5.90176e-06
3.77215e-07
2.66063e-07
2.94915e-06
3.08979e-11
-6.22983e-09
0.00037655
2.23143e-12
-1.42494e-11
2.08494e-05
9.24859e-07
0.00153937
-4.54659e-08
1.45814e-09
3.53082e-19
-2.73722e-19
-2.1426e-08
2.10149e-08
5.08071e-06
3.41796e-10
5.40516e-12
-4.38469e-15
-2.19614e-07
-2.95621e-07
2.7361e-08
2.26678e-09
-1.32272e-08
-5.30727e-09
1.09694e-05
-1.29651e-08
3.40037e-08
0
-6.93374e-10
2.0257e-06
-7.24462e-07
-6.7239e-20
2.5483e-15
8.62859e-05
1.82385e-08
-0.000150894
-2.45338e-07
-3.03544e-08
2.9514e-07
-2.76176e-05
7.44025e-07
-4.39425e-07
-7.10611e-10
3.27877e-10
5.15255e-20
-5.81374e-20
9.84191e-07
-1.04575e-05
-4.9581e-06
0
-4.63353e-10
7.28647e-06
4.16517e-15
-5.58727e-17
1.17069e-13
-1.66053e-13
1.88402e-07
-5.30934e-14
7.31804e-12
-2.52482e-07
1.24998e-06
-0.000872143
0.00219085
-1.02831e-07
3.11101e-06
-0.000434182
0.00188437
5.77019e-07
-0.000878056
-0.000450167
1.69932e-08
-2.47692e-08
3.12715e-08
-4.75136e-06
1.25933e-08
0.00154519
-8.69931e-10
0
-1.77136e-15
4.04471e-07
9.79073e-12
-4.94275e-11
-2.34948e-08
0.000536077
-1.10107e-05
2.5428e-06
4.93329e-20
-8.98863e-20
-1.02887e-06
1.49408e-06
2.30374e-06
-1.6247e-06
8.92215e-07
-7.95287e-08
3.99111e-07
-6.99165e-19
-8.81207e-12
-1.92249e-07
1.16138e-17
-3.93177e-16
0.00104816
-0.00104816
-5.9633e-16
-1.43677e-12
2.05702e-08
-2.83858e-06
-3.4523e-07
2.2157e-06
-1.45673e-06
0.000377753
-1.41458e-08
7.09428e-10
-2.38208e-06
5.26766e-07
-1.05989e-05
6.1887e-06
1.21932e-09
-2.97051e-08
6.59467e-10
-3.3164e-09
-0.000696322
0.00223726
-5.49177e-20
-6.26132e-06
0
-5.0484e-08
2.33733e-09
0
5.54248e-07
-0.000137527
4.38045e-05
3.00958e-17
-2.69874e-17
-3.05165e-12
-1.09709e-08
-6.24766e-09
7.95726e-12
-2.29828e-16
3.27875e-08
-5.06429e-08
5.39101e-10
-1.60448e-09
0.000442422
1.07429e-06
0.00149647
1.55522e-05
-6.05565e-19
2.83377e-08
-9.69219e-09
4.95945e-08
-1.28115e-07
4.26977e-07
4.63214e-07
-3.37157e-10
-2.36172e-20
-3.90443e-10
-5.2892e-05
-0.000152933
-7.03291e-07
-3.79974e-10
3.50926e-10
1.50111e-07
-1.11393e-06
-9.10257e-16
-2.6281e-07
-1.35155e-06
1.01461e-06
-1.22751e-07
-1.5067e-10
-3.87799e-14
-1.15353e-10
-2.5668e-11
0
1.41006e-06
2.57369e-19
-9.30496e-19
-0.000382553
0.000415526
1.11595e-08
-5.05982e-09
5.75538e-12
-1.23236e-10
0
1.88868e-13
-2.33297e-13
-1.17697e-05
7.13075e-06
0
-3.43106e-07
2.13931e-08
-1.339e-05
0.000992099
-8.85026e-17
1.5997e-07
-1.39151e-08
4.45707e-06
7.00226e-07
-4.4796e-08
1.44626e-07
-1.31908e-08
7.66101e-12
-0.000652697
0.00190738
1.53621e-07
-1.33354e-08
-6.05616e-11
-4.35844e-07
-1.64827e-10
1.74389e-15
-2.22751e-07
8.97596e-10
2.69671e-05
3.3383e-09
-9.71378e-10
0.00136712
-6.72041e-07
0
9.41754e-18
-3.42694e-18
-1.45537e-17
-3.95977e-06
-2.00076e-07
4.85368e-07
4.21608e-05
0.00022121
-0.000263371
4.40927e-16
-7.04531e-15
1.8807e-06
-4.79746e-21
5.53951e-07
-2.50692e-06
0
-1.27126e-07
-1.1265e-07
1.37406e-06
3.06986e-09
-2.54086e-09
1.55676e-09
-1.49206e-08
-0.000233397
-7.04732e-07
8.92253e-07
-3.161e-09
3.52598e-09
-1.27082e-06
-2.60023e-11
5.93072e-19
-5.09498e-19
4.1512e-05
-4.22664e-05
-5.71876e-18
-0.000658677
-1.078e-08
2.98129e-07
-3.9498e-07
-1.4118e-07
-1.83216e-09
-0.000628879
0.00179646
-1.45524e-05
6.77032e-06
6.4616e-09
-7.67497e-09
-5.63073e-08
-3.34002e-09
3.23706e-08
1.96383e-11
-4.15005e-11
4.51823e-09
0.00034092
-1.19346e-06
8.51418e-08
2.17284e-05
0.00022881
2.57067e-18
-8.1369e-18
-3.03572e-08
1.72124e-07
1.52241e-09
2.23495e-08
-0.000137259
3.85346e-05
1.0133e-09
-1.32839e-09
1.18459e-11
-2.50055e-06
1.76525e-06
-7.65162e-08
2.56604e-07
0.000334381
1.58936e-19
-9.47846e-20
-1.62693e-07
2.90787e-07
-4.82006e-18
-2.0713e-07
-5.28921e-08
-7.56349e-10
2.05565e-06
-4.12068e-09
1.40857e-07
-1.54477e-07
1.05798e-10
-1.00192e-10
-2.84727e-05
-3.60252e-08
1.10307e-07
9.19389e-09
-1.73567e-08
-2.84485e-07
2.17593e-07
-2.76803e-06
2.18104e-06
3.93139e-11
-1.53183e-11
-1.3153e-07
0.000184157
-2.27131e-06
-2.96303e-10
5.83326e-05
0
8.87955e-06
-2.40384e-11
-2.37684e-20
-2.28331e-07
1.24272e-07
6.13631e-11
-3.00737e-20
-2.65853e-09
5.21467e-11
7.47509e-09
-7.45799e-09
-6.21885e-08
1.66571e-06
-6.74506e-07
-0.000307179
0.000210587
9.83333e-11
-2.50397e-07
1.39815e-09
-9.46071e-06
2.76256e-06
-1.06705e-14
4.49405e-13
-7.95198e-13
0.00015425
2.99285e-05
-1.22521e-07
9.86889e-08
0.000201488
-1.37516e-07
2.13227e-08
1.04515e-07
-2.15543e-06
1.52505e-14
2.18709e-14
-4.95972e-14
-1.81263e-08
-1.42579e-07
6.52001e-09
-1.327e-06
9.23113e-07
1.21887e-10
-1.21311e-12
-5.44785e-09
1.04811e-12
2.09623e-14
0.00112943
-2.07144e-20
1.00451e-20
-3.80311e-21
1.41226e-09
-4.59189e-09
3.79177e-09
1.83252e-11
-4.75345e-11
-1.37761e-13
0.000261902
-9.92431e-06
0
1.02159e-16
-6.43283e-13
1.16957e-05
5.74052e-06
3.21206e-05
3.19276e-10
-4.03231e-13
0.000129763
-1.63342e-08
3.46217e-08
-5.38797e-08
-3.8738e-09
8.21181e-08
-6.20381e-12
-4.04728e-08
-4.85224e-07
1.14095e-07
1.96769e-17
-6.22316e-17
-2.69609e-07
1.86446e-08
-1.18753e-07
-3.12822e-10
-1.10236e-09
-5.99514e-11
5.069e-13
7.66796e-08
0.000136345
-1.00919e-07
2.08954e-08
2.59458e-15
3.1939e-10
-1.16471e-07
-3.95943e-11
-6.36605e-13
2.43462e-10
-2.06916e-10
1.4484e-07
-2.22011e-08
7.84238e-10
-2.44438e-10
2.70687e-10
4.47332e-11
1.36017e-07
-1.87376e-21
-9.52793e-08
1.80229e-09
-8.06656e-07
1.27284e-07
-8.01054e-20
-2.39345e-05
2.59032e-05
-4.15674e-08
5.43183e-09
3.43469e-05
-3.81077e-09
-2.6128e-10
1.70263e-09
2.49565e-09
5.67282e-11
-1.10167e-10
-1.9053e-07
4.04183e-06
-8.94105e-07
7.93546e-07
-1.65834e-09
7.92216e-09
-9.29523e-09
4.47619e-15
-2.19706e-15
6.43141e-09
-3.65511e-08
-7.78526e-09
9.53668e-09
4.43042e-05
-3.81097e-05
-1.75581e-08
1.1692e-07
-1.94783e-07
2.12694e-10
-1.88231e-10
3.8521e-21
-2.84432e-20
1.63667e-07
-8.32555e-09
-3.03891e-09
2.119e-10
-9.49663e-09
8.90842e-09
1.52243e-07
-4.5968e-08
1.31732e-16
-4.23471e-16
-1.11758e-09
1.75182e-09
-2.07814e-08
7.88094e-09
-5.97434e-10
-1.47113e-07
-3.76207e-12
8.0652e-06
2.62971e-05
2.20616e-12
-7.46553e-09
6.20331e-09
-5.21394e-10
3.64776e-10
-3.54853e-16
3.97686e-16
-1.2545e-07
4.77214e-09
-2.98563e-12
2.82564e-09
0
9.6963e-10
-1.58258e-09
2.3032e-08
-5.30131e-09
7.29655e-08
-5.73925e-12
-1.15132e-08
4.35182e-06
2.89935e-12
-2.73753e-12
3.53243e-13
-1.61942e-07
-6.51279e-10
6.77556e-13
-2.16352e-14
4.31077e-12
-1.29365e-07
1.24206e-08
6.51577e-10
3.13321e-09
-3.32383e-07
7.53083e-08
1.08046e-14
6.71209e-14
-5.33954e-14
1.90042e-06
1.03534e-10
-1.16289e-09
2.88721e-11
-1.14542e-16
-1.45686e-22
-8.97431e-10
2.34223e-12
-2.37455e-12
-6.43985e-09
2.48656e-09
8.70162e-11
1.40937e-12
-1.49023e-09
2.43398e-15
1.38102e-16
-6.47349e-16
-2.47675e-05
2.16774e-05
7.56332e-12
-6.77104e-11
3.93929e-06
2.98288e-09
-5.62783e-09
-6.07981e-09
1.66747e-09
4.15403e-17
-2.31956e-17
-1.07133e-08
2.44235e-09
-3.48203e-11
-1.45111e-09
1.44148e-09
6.55446e-05
4.29337e-06
-7.76984e-05
-1.89749e-11
7.66081e-19
-1.65676e-09
-7.37286e-08
-9.52333e-10
-1.68445e-09
-1.22077e-12
5.74098e-15
-5.53027e-07
2.79987e-12
-5.8531e-12
5.40157e-05
0.000207076
3.43987e-07
-1.50446e-06
-5.98128e-10
3.40723e-19
-2.88474e-19
-1.82818e-10
-6.0084e-05
7.48027e-05
-1.08635e-05
1.76984e-05
2.50594e-06
1.2607e-09
3.28904e-20
-3.74309e-19
-5.41934e-11
-6.72178e-13
-1.93062e-10
3.49207e-14
0
7.62865e-06
-1.36547e-09
3.986e-09
-9.96022e-09
-0.000123263
0.000120984
-1.68341e-15
-8.99033e-14
-1.06662e-13
4.72048e-11
-2.48924e-08
9.11689e-09
7.16151e-12
4.67581e-07
-4.71477e-11
-6.20727e-12
9.71344e-12
-3.13019e-06
7.78982e-06
-9.87116e-10
2.93323e-10
-5.75275e-09
3.05759e-10
-1.30275e-08
1.45675e-09
2.06627e-19
-3.01312e-20
-9.05031e-12
1.18429e-11
-7.8207e-10
-2.97276e-05
0
-2.05399e-09
-9.93176e-10
7.39232e-11
0.00034362
-0.000249302
-1.39329e-10
-1.13155e-11
3.9413e-11
1.10337e-08
-1.71802e-08
-1.00914e-13
-1.34632e-07
1.60619e-09
1.48224e-11
7.18062e-12
-6.70435e-12
8.85647e-12
-2.14224e-11
-3.85969e-11
1.19277e-10
-1.7661e-09
3.73373e-10
0.000186016
-0.000143855
-4.6382e-22
9.91243e-10
-7.06344e-09
-1.18567e-10
1.06719e-10
4.6563e-11
-4.25568e-11
1.62754e-06
-2.99885e-06
-4.3892e-12
-2.84039e-06
0.000359928
-7.40175e-11
5.01977e-12
-4.37139e-12
3.89125e-14
-4.45809e-15
-5.28918e-05
6.62789e-10
-2.73084e-10
-5.03239e-11
-8.65518e-11
5.46212e-11
0.000336309
-1.13765e-10
2.45889e-07
5.7824e-11
1.52991e-20
-2.48462e-21
2.50887e-15
-2.52853e-10
6.14171e-11
4.55149e-11
-1.96303e-14
8.60318e-16
-9.44526e-14
-1.68687e-08
-1.47308e-14
-7.99461e-14
8.64036e-12
-1.13326e-11
-2.68887e-13
1.83305e-13
0
7.63518e-09
-1.52825e-12
2.95231e-11
-4.91861e-11
-1.68405e-05
7.98603e-06
-7.3131e-07
-2.72858e-09
8.68121e-10
-6.31615e-11
8.59729e-12
1.49639e-08
-1.49647e-08
4.08435e-13
2.13829e-06
5.7216e-08
2.90035e-13
-6.93463e-14
4.99845e-13
1.40927e-12
-1.34269e-12
3.7895e-11
1.25453e-15
-1.67365e-15
0.000183875
-2.9625e-05
0.000642828
-0.000299208
2.9046e-10
1.5436e-12
-1.62395e-12
3.65948e-13
0.000151202
-1.63286e-12
2.47333e-08
-2.17794e-08
-3.203e-08
-8.41692e-11
5.48589e-11
-2.09469e-13
1.41565e-13
-1.43749e-14
-1.16881e-09
3.76234e-10
1.58282e-17
4.54268e-06
-2.62125e-06
1.73504e-10
-2.67591e-10
8.98169e-19
-3.43419e-18
-1.87683e-10
4.62095e-11
-3.06962e-13
-1.2684e-11
-3.0956e-11
2.66536e-11
6.37689e-07
2.08308e-08
-4.74939e-08
1.43227e-12
-1.36916e-12
1.10089e-14
-1.52002e-14
-5.67722e-06
7.40488e-06
-4.75102e-15
2.53474e-21
-2.73247e-21
3.1102e-10
-2.22521e-11
-5.27596e-12
7.7112e-13
1.48475e-11
-2.96557e-10
-8.46479e-12
2.73161e-15
-6.98783e-14
-1.36123e-13
-8.2659e-15
0.000363707
-0.000177691
-3.51614e-13
9.25985e-10
-9.88868e-14
7.81428e-14
-1.00305e-13
-5.13148e-11
4.03898e-12
-7.03138e-12
2.59944e-12
2.07443e-11
-6.11993e-11
1.02561e-11
0.000114404
-1.61141e-09
3.54549e-11
7.85843e-14
-1.03579e-13
8.84473e-21
-2.10659e-14
-1.22912e-11
1.81366e-13
-1.871e-13
1.24427e-13
2.04437e-14
-0.000460253
-2.31448e-13
-4.401e-15
1.19915e-16
-3.11758e-14
4.03932e-10
-7.82442e-10
5.47546e-15
-2.6043e-17
3.59183e-13
-3.20141e-10
0
-1.44101e-14
1.32563e-13
-2.00443e-13
-3.50966e-16
-6.88418e-14
1.70846e-08
-3.68512e-12
-3.73065e-15
-7.23422e-16
1.17083e-13
1.17491e-12
-1.22509e-12
-1.71193e-11
3.19929e-14
9.7239e-10
-1.51741e-11
-3.19557e-07
2.54653e-15
6.48794e-18
-5.25763e-07
-8.71263e-10
1.84682e-11
-5.01197e-17
-0.000167478
1.81455e-13
-2.74348e-15
2.61029e-15
3.01938e-10
-9.47174e-10
-7.38475e-16
0.000294427
-1.6464e-14
-2.12039e-12
5.63832e-13
-2.9319e-14
-8.63716e-13
6.38786e-14
3.11852e-15
-2.29812e-15
-1.43205e-13
1.40117e-13
-9.44547e-21
3.58876e-21
5.84439e-05
-4.32497e-06
5.79597e-07
0.000139569
-0.000283424
3.54593e-17
-5.66972e-07
-1.7662e-11
5.16563e-12
-4.74514e-13
1.35498e-13
2.58731e-11
-6.46822e-12
2.49318e-13
-3.9672e-13
-1.34287e-13
3.53961e-15
4.08028e-12
-8.63163e-13
-1.79864e-09
-1.17154e-13
-2.42299e-14
0.000276706
-0.000137137
2.70683e-12
0
-4.9211e-13
-1.03234e-12
9.43572e-13
1.05764e-09
-1.2834e-09
-7.49931e-13
7.72146e-13
1.18971e-12
-5.71078e-12
-5.24358e-06
1.43087e-06
-0.000101791
-0.000144897
0.000115272
-6.07324e-13
8.5461e-13
-3.9969e-11
6.59408e-13
0.000299208
-0.000184804
-1.17454e-15
-1.28004e-11
3.46774e-12
-9.99894e-05
8.21547e-05
-6.91763e-13
8.18231e-13
2.85668e-15
-6.84141e-15
-6.5201e-13
9.88297e-13
4.21608e-17
-0.000311843
5.3177e-05
0.000318299
-7.89338e-13
9.64849e-13
-3.49117e-14
-0.000100932
0.000128701
-7.15497e-18
1.61656e-14
-2.53024e-17
-8.18544e-13
5.02037e-13
-1.79727e-11
1.81387e-12
6.85458e-07
-4.41544e-07
6.6295e-15
-2.00125e-12
-3.506e-14
7.56892e-14
-9.32181e-14
-2.72409e-13
2.64754e-13
1.26968e-11
-1.54289e-11
2.11994e-06
-2.46034e-05
2.78697e-05
9.7453e-10
-8.80664e-14
1.50365e-12
-2.01416e-12
2.46011e-13
-1.15892e-13
-2.39128e-05
5.0647e-13
-5.69996e-13
-4.41066e-17
3.8678e-16
1.53137e-13
5.63036e-08
4.77852e-06
9.90153e-05
-4.5578e-13
2.64678e-13
-1.06635e-12
2.06095e-15
-4.91666e-14
1.69295e-11
-4.20403e-13
1.761e-13
-8.66809e-16
6.33317e-11
8.02389e-15
-1.21916e-14
1.12574e-13
-7.83769e-19
-4.11587e-13
4.44906e-13
1.9483e-09
-3.19502e-09
-1.47898e-09
1.40333e-16
-9.59078e-17
5.26486e-18
-7.41532e-18
-2.53456e-17
-2.26484e-13
1.37998e-13
-1.80667e-14
1.61985e-11
-1.63642e-11
2.73641e-12
-4.19169e-12
-1.24754e-12
3.84381e-13
-6.90053e-12
1.66273e-12
6.0948e-12
-8.14457e-12
5.19531e-13
-3.70126e-13
-4.87008e-13
-5.085e-21
-3.01403e-17
-7.86964e-16
6.35418e-17
2.20558e-13
-1.2688e-13
-2.42128e-13
1.57617e-13
-4.87191e-17
-2.66235e-12
6.0817e-13
-1.22049e-13
1.16136e-11
-2.18559e-11
9.68532e-14
5.03294e-14
-1.25894e-14
-3.91675e-17
2.84474e-13
-6.03685e-14
2.81362e-20
-1.30509e-13
-1.84119e-11
1.07065e-12
7.90939e-15
-6.02067e-17
0.000129546
-0.000231336
5.36287e-14
0.000215236
-8.56906e-05
-3.6722e-14
1.5636e-10
3.37104e-15
1.31e-16
9.90226e-17
-1.09971e-16
-5.99275e-13
9.94774e-14
0.000184804
-8.57883e-05
-2.38134e-14
7.45581e-15
1.39413e-14
-2.13604e-14
7.80995e-05
-9.85802e-07
2.38775e-07
0.000772288
-0.00124206
1.68616e-11
1.26926e-13
-9.14542e-16
-5.57218e-14
-8.01345e-05
5.55833e-16
-6.78041e-17
5.89795e-16
3.49491e-11
-5.0076e-11
2.91938e-13
-2.64201e-13
5.73738e-07
-9.59505e-08
-1.5802e-13
1.39306e-13
-5.94426e-14
7.11442e-15
-2.00661e-17
-2.07491e-14
-1.78186e-14
4.33155e-08
1.76279e-17
9.19943e-18
-1.37828e-13
8.12281e-14
3.55511e-13
-3.45361e-14
8.35471e-17
-4.23869e-17
-1.73345e-13
4.234e-14
-0.000169198
8.90631e-05
-6.52334e-14
6.34852e-15
-8.21546e-05
5.82418e-05
2.30591e-13
-2.48875e-13
-2.89554e-14
-4.89774e-13
3.27097e-13
6.11411e-15
1.18526e-16
-2.49176e-16
-1.19356e-13
4.10294e-14
-1.48893e-16
1.56833e-16
7.66114e-11
-7.44669e-11
-6.25966e-15
1.4939e-05
-4.36297e-14
-5.09189e-15
-1.46544e-13
4.51872e-14
-3.34297e-15
-4.26401e-15
-1.73886e-15
0.000287777
-7.52418e-05
-0.000354686
-1.45027e-13
2.29184e-14
2.53278e-14
-3.08104e-14
2.65465e-13
9.0683e-14
1.78741e-16
-1.94652e-16
-2.50663e-14
8.57883e-05
-7.68887e-06
-1.53745e-16
1.46475e-16
-6.10983e-14
2.76994e-14
9.74408e-14
-1.21285e-13
-1.75196e-16
1.65139e-16
1.37033e-10
-1.26256e-11
4.23988e-08