/*--------------------------------*- C++ -*----------------------------------*\
  =========                 |
  \\      /  F ield         | OpenFOAM: The Open Source CFD Toolbox
   \\    /   O peration     | Website:  https://openfoam.org
    \\  /    A nd           | Version:  8
     \\/     M anipulation  |
\*---------------------------------------------------------------------------*/
FoamFile
{
    version     2.0;
    format      ascii;
    class       volScalarField;
    location    "0.55";
    object      epsilon;
}
// * * * * * * * * * * * * * * * * * * * * * * * * * * * * * * * * * * * * * //

dimensions      [0 2 -3 0 0 0 0];

internalField   nonuniform List<scalar> 
1924
(
0.0360467
0.0385449
0.0554724
0.0590568
0.0420333
0.0616145
0.0628102
0.0646388
0.0646841
0.0521483
0.0659354
0.0656879
0.0297034
0.0669643
0.0666698
0.0662287
0.0347002
0.0667183
0.0312303
0.0673263
0.0204933
0.0630363
0.0368771
0.0669543
0.0631752
0.0710515
0.0722056
0.043666
0.0470198
0.046556
0.0403199
0.0649788
0.037477
0.034478
0.0451209
0.0402607
0.06778
0.0472364
0.043289
0.0390809
0.0698883
0.023865
0.0691983
0.0325745
0.0556633
0.0500439
0.0305416
0.0590775
0.0130764
0.0143766
0.0240537
0.0287274
0.0615267
0.0269839
0.0514556
0.0519315
0.0299363
0.055802
0.0437021
0.0701498
0.0303117
0.0666313
0.026069
0.040231
0.0311012
0.058995
0.0672588
0.0444786
0.0496771
0.0220324
0.016109
0.0663995
0.0396176
0.0504065
0.0501599
0.0412373
0.0605532
0.0529264
0.058985
0.0252264
0.0620354
0.0726929
0.0530305
0.0223481
0.0356013
0.0477959
0.0453777
0.0675496
0.0118909
0.0175735
0.0683594
0.07233
0.0532486
0.0561609
0.0226392
0.0320178
0.0609795
0.0629043
0.0709015
0.0305206
0.0551178
0.024567
0.0706152
0.072098
0.0575277
0.0563752
0.0567802
0.0569151
0.0691959
0.0557374
0.0617092
0.0532209
0.0453213
0.0514103
0.0587784
0.0183214
0.0564602
0.0662305
0.0537324
0.0600237
0.030052
0.0424577
0.0164613
0.0164773
0.0668297
0.0610012
0.0452991
0.0525347
0.0555234
0.07474
0.0616049
0.0568732
0.321173
0.0534078
0.0311313
0.0594304
0.0504041
0.0526409
0.0672525
0.0459265
0.0532581
0.0667481
0.203881
0.33384
0.0609442
0.0363425
0.0586135
0.0240502
0.0663658
0.0528561
0.0503178
0.085429
0.0391823
0.0613487
0.0622265
0.0624051
0.0421763
0.050819
0.0625657
0.388501
0.0505393
0.0448052
0.0620068
0.0448622
0.0449184
0.0609211
0.0644322
0.0539596
0.0596864
0.0587509
0.0441031
0.0649544
0.0555057
0.0713965
0.0541761
0.0556079
0.0476913
0.0627696
0.0384026
0.0653462
0.0654593
0.0662411
0.0554593
0.0654654
0.0131501
0.0333964
0.0442047
0.0685947
0.0607311
0.0535168
0.0558873
0.0652722
0.0623559
0.0656561
0.0671755
0.0907394
0.0707041
0.0583118
0.0613038
0.0568326
0.125833
0.0370694
0.0624937
0.0668368
0.0441785
0.0666788
0.0675876
0.0411304
0.0289033
0.296746
0.0478917
0.0585498
0.0678974
0.067985
0.0693477
0.0553739
0.0641139
0.0581099
0.0675198
0.051025
0.0614317
0.0537591
0.0642226
0.0682154
0.066714
0.0712389
0.0633911
0.0580637
0.0692171
0.0593598
0.26659
0.069049
0.0633071
0.106076
0.0718774
0.390299
0.0675037
0.0686879
0.0653988
0.0967397
0.0664404
0.0658579
0.0668983
0.0450551
0.283518
0.0285286
0.0678975
0.0588223
0.0549565
0.056208
0.0318005
0.0599699
0.0698365
0.0617913
0.0603715
0.0678733
0.0701142
0.0659319
0.0626074
0.0685045
0.0651493
0.0669216
0.0711384
0.0562581
0.0645424
0.0475629
0.0216168
0.0533446
0.0513342
0.0973574
0.0577773
0.0494095
0.0474482
0.0689012
0.0690071
0.061726
0.0676807
0.0722312
0.0623369
0.0620303
0.0966357
0.145891
0.0686774
0.0704705
0.0276558
0.0529387
0.0632038
0.0708288
0.0692423
0.0671065
0.0678907
0.0432529
0.0721681
0.0672685
0.0154655
0.04385
0.0675162
0.0444284
0.0512688
0.0674452
0.12811
0.0648625
0.0663767
0.062322
0.0684592
0.0711863
0.0220243
0.0656358
0.0671012
0.0567639
0.0345233
0.0514261
0.0709203
0.0594978
0.0615504
0.0260856
0.0660232
0.0690051
0.0689565
0.0679987
0.0449232
0.0598789
0.0658739
0.0468821
0.0724018
0.0593997
0.0689533
0.0695607
0.0594333
0.064295
0.063837
0.0674766
0.0585264
0.068176
0.0481197
0.0723148
0.0693808
0.0694087
0.0709662
0.0675155
0.057722
0.0497954
0.0616062
0.0480497
0.0668847
0.0667346
0.265755
0.0675572
0.0500587
0.0713248
0.0675512
0.179697
0.162711
0.0667181
0.0346045
0.0546283
0.0134546
0.0694318
0.065245
0.0265936
0.0716383
0.0670539
0.0661479
0.0683972
0.0661995
0.0680201
0.0605926
0.0580617
0.0712585
0.070157
0.0648896
0.0687161
0.0677695
0.0662531
0.0718543
0.0424752
0.0667886
0.06645
0.0631795
0.0674413
0.0671524
0.0524783
0.069614
0.0700104
0.0623361
0.064254
0.0463092
0.0678448
0.0712213
0.069039
0.195252
0.058535
0.0711454
0.0673904
0.0702255
0.215233
0.0688554
0.0621914
0.064106
0.0665289
0.0397661
0.0486109
0.0474098
0.0538106
0.126128
0.0682706
0.0630396
0.0675532
0.0657562
0.0676386
0.0715117
0.057713
0.0691602
0.0691138
0.0708909
0.0614551
0.0604419
0.0666826
0.0509188
0.0616101
0.0665178
0.0596859
0.062157
0.040145
0.0648241
0.0651906
0.0612796
0.0393041
0.0602278
0.0704187
0.0677919
0.0590962
0.0696025
0.0560304
0.0706045
0.0704585
0.0645727
0.0170816
0.0698513
0.0638015
0.0638643
0.0700345
0.0705966
0.0357842
0.066909
0.288014
0.0703628
0.0463977
0.0715577
0.0665954
0.0662549
0.0594843
0.0712047
0.0649185
0.0691475
0.0723579
0.0632246
0.0665048
0.0552573
0.066958
0.0560492
0.061724
0.0268631
0.0541273
0.0504191
0.0664282
0.0660971
0.0709773
0.0696687
0.0572018
0.0665007
0.057797
0.0417763
0.0626645
0.0578541
0.0540185
0.0362627
0.0690999
0.0667231
0.0667237
0.070087
0.0704046
0.065599
0.0660196
0.0610172
0.0654634
0.0691331
0.066116
0.0675284
0.0624243
0.0192787
0.0679425
0.057016
0.0623924
0.0654067
0.061152
0.066742
0.0657404
0.0688157
0.0472393
0.06496
0.0663636
0.0619721
0.0632143
0.0390431
0.0612743
0.0663794
0.0677678
0.0595136
0.0632495
0.0497291
0.060125
0.0647939
0.0716167
0.0646346
0.0643381
0.0624845
0.0725742
0.0700579
0.0667297
0.0552108
0.0662615
0.0574266
0.0627694
0.0716031
0.0726097
0.0419991
0.0308421
0.0670055
0.0701992
0.0532986
0.0687419
0.0587493
0.0467154
0.0490006
0.0643429
0.0705337
0.0591439
0.0312733
0.06467
0.0609359
0.0463489
0.0262481
0.0473656
0.0613306
0.0662214
0.0379288
0.0382913
0.0652806
0.0646777
0.0665189
0.0635747
0.0664942
0.0569108
0.0672265
0.0491606
0.035485
0.0264995
0.044094
0.0349725
0.063918
0.0542674
0.0514733
0.0631521
0.0630985
0.0507613
0.055631
0.0629918
0.0391542
0.0603052
0.0607012
0.064571
0.0669006
0.0629857
0.0421536
0.0629633
0.0404423
0.0439464
0.0632675
0.0523367
0.0621949
0.0658295
0.0697741
0.062657
0.0338481
0.0294818
0.0651415
0.0489495
0.0584404
0.0477052
0.0657918
0.056092
0.0791888
0.0298888
0.0272475
0.0628346
0.0630454
0.0599438
0.0641689
0.0522243
0.028037
0.0653098
0.0700376
0.035397
0.0584779
0.0680227
0.0726354
0.0512363
0.0525735
0.0486262
0.0652279
0.0662772
0.0443316
0.0621982
0.061643
0.0650736
0.0718109
0.0516674
0.036361
0.0417491
0.061132
0.0570297
0.0638228
0.0632865
0.0699726
0.0397019
0.0351733
0.0653091
0.0719502
0.0487814
0.0661089
0.0649979
0.0595528
0.0506787
0.0577046
0.0333518
0.0651149
0.0383717
0.0634008
0.0607517
0.0620368
0.0617356
0.0599501
0.0654018
0.0615564
0.0659506
0.0627457
0.0655271
0.0630015
0.0609631
0.0530712
0.0615926
0.0494643
0.0713081
0.0383268
0.0618628
0.0514204
0.0487886
0.0652009
0.050823
0.0529973
0.0304896
0.039926
0.0588799
0.0620874
0.0344645
0.0640609
0.0657874
0.0551445
0.0591872
0.0610748
0.0528723
0.0202598
0.0631176
0.0659001
0.0579401
0.0696509
0.0661763
0.0295492
0.0440871
0.0628662
0.063166
0.0640219
0.0632508
0.0636206
0.0698658
0.0626522
0.0394542
0.060749
0.0338386
0.0455972
0.0686886
0.0639157
0.0636723
0.0523176
0.0648514
0.0469001
0.0428127
0.0604621
0.0619288
0.054277
0.049772
0.0627161
0.0421335
0.0331055
0.062433
0.061197
0.0637124
0.0604944
0.056808
0.0541608
0.0310855
0.0612478
0.0402785
0.0637215
0.0718515
0.0613131
0.0511824
0.0648916
0.0223716
0.0403001
0.0647172
0.050553
0.0386663
0.0659872
0.047907
0.0670787
0.037576
0.0502459
0.0587329
0.0616111
0.0499445
0.0425815
0.0613484
0.0634799
0.06355
0.0629469
0.0616385
0.0641679
0.0502369
0.0322778
0.0621817
0.0522836
0.0465641
0.0649817
0.128137
0.0579768
0.0421347
0.0559958
0.0582138
0.0624171
0.0618058
0.0692923
0.0357963
0.0401006
0.0712558
0.0312019
0.0363692
0.0399086
0.0644372
0.0329352
0.0626375
0.0649839
0.0551605
0.0619517
0.0462966
0.062099
0.058973
0.0347953
0.0616787
0.0651991
0.0618061
0.0460367
0.0615025
0.0457902
0.0602601
0.0572588
0.0620744
0.0375727
0.0612459
0.0493582
0.0441735
0.0687293
0.0537325
0.0678633
0.0328064
0.0660063
0.0615427
0.06285
0.0457529
0.0484791
0.0527211
0.0625917
0.0615315
0.0598633
0.0536408
0.0600819
0.0246879
0.0614345
0.0532152
0.0246787
0.0525912
0.0620265
0.0286867
0.0459102
0.0655416
0.033123
0.0649477
0.062104
0.0582152
0.0329737
0.0581351
0.0468221
0.0566877
0.0541975
0.0421794
0.0640868
0.0334506
0.0617431
0.0550862
0.0515303
0.0703254
0.0641253
0.0352688
0.0632329
0.0579225
0.0590278
0.0635523
0.062227
0.0448022
0.0655424
0.047608
0.0552404
0.060579
0.0605328
0.0604439
0.0413542
0.0640825
0.0553717
0.114733
0.0649462
0.0963961
0.0607615
0.060647
0.0152882
0.0530036
0.0608869
0.0597221
0.0645053
0.053559
0.0683988
0.0629492
0.0387525
0.0430641
0.0653489
0.0617335
0.052214
0.0560992
0.0357863
0.0330241
0.0638076
0.0640989
0.0618706
0.0296551
0.0503734
0.0622425
0.0356253
0.0604018
0.0413746
0.0479114
0.0543879
0.0539744
0.0488765
0.0683458
0.056886
0.0285
0.0449522
0.0483248
0.0327953
0.0613327
0.0267956
0.0547818
0.0644568
0.0299574
0.0618986
0.060487
0.0622902
0.0659198
0.0631289
0.063467
0.0574978
0.0489581
0.071697
0.0631156
0.059744
0.0594952
0.0572429
0.0649711
0.0511682
0.0656324
0.0449568
0.0299496
0.0557463
0.0382205
0.0596449
0.0597854
0.061754
0.0377156
0.0602899
0.0618493
0.0599883
0.0268744
0.0572061
0.221246
0.0385828
0.0626022
0.0393243
0.0594633
0.0565869
0.0339518
0.0304383
0.0654892
0.0584319
0.0421172
0.0549167
0.0470825
0.0466557
0.0699778
0.0679333
0.0608436
0.0572888
0.0649072
0.0593542
0.0536913
0.0623564
0.0436328
0.0646092
0.0546065
0.0612492
0.0627486
0.0354787
0.13114
0.0544194
0.0238152
0.114461
0.0619891
0.0580125
0.0623654
0.0425561
0.0652692
0.0517446
0.0592427
0.275632
0.0552174
0.0639877
0.147245
0.0496685
0.0544417
0.0446259
0.0650107
0.0452802
0.0497735
0.0558952
0.068574
0.0389393
0.0622774
0.063096
0.0592231
0.0603575
0.0395705
0.0371388
0.0566867
0.0308277
0.0605509
0.0649433
0.0237407
0.0622394
0.0611345
0.0633763
0.0499366
0.0652083
0.0610499
0.0499433
0.0575485
0.0600199
0.0626153
0.0590374
0.0343583
0.028087
0.0542712
0.0600447
0.0623705
0.0479246
0.0584479
0.055151
0.032187
0.053021
0.0642026
0.0644757
0.0472394
0.0601506
0.0417265
0.0523159
0.0648887
0.0557744
0.047117
0.06516
0.0656368
0.0563005
0.0362979
0.0593172
0.0432704
0.0653123
0.0623325
0.0562061
0.0539403
0.0623579
0.0618795
0.0564331
0.060067
0.0586627
0.0621526
0.0585087
0.0748839
0.033873
0.0386283
0.0620377
0.0572178
0.0617803
0.0557136
0.04315
0.0359787
0.0506501
0.0537738
0.0636587
0.0401072
0.0408713
0.0580656
0.0663331
0.0461778
0.0599681
0.0477528
0.065102
0.0679572
0.0629087
0.0652055
0.0611836
0.0497628
0.0616119
0.0615552
0.0620059
0.058941
0.060299
0.045718
0.0601125
0.0606989
0.0683404
0.0610734
0.0603134
0.0620406
0.0525115
0.0620822
0.0485515
0.0538333
0.0258286
0.0473391
0.0355509
0.0642957
0.0609595
0.0486126
0.0422461
0.0653319
0.0432578
0.0597171
0.0549121
0.0621096
0.0609816
0.124381
0.0648298
0.0558344
0.0607243
0.0601174
0.0618093
0.056657
0.0205342
0.0451801
0.0509332
0.0397589
0.062273
0.0652513
0.0622054
0.057407
0.0644171
0.0600538
0.0599439
0.0606953
0.0617929
0.0643394
0.0609786
0.0611532
0.0449295
0.0526252
0.0580484
0.0487312
0.0604642
0.0618514
0.0224725
0.0465532
0.0620127
0.0634643
0.0616498
0.0462129
0.0624834
0.0769036
0.0729063
0.068792
0.0479607
0.0602939
0.0549742
0.0539365
0.0615052
0.0621739
0.0459973
0.0649714
0.0549053
0.052735
0.0519652
0.0603473
0.0550331
0.0548572
0.03698
0.0644914
0.0613349
0.064757
0.0559725
0.0511177
0.0612293
0.0526365
0.0490846
0.0427536
0.0567955
0.0646767
0.105457
0.0416845
0.0440315
0.0583785
0.0613883
0.060942
0.0574716
0.0618468
0.0301006
0.0603871
0.0483596
0.0647187
0.0640056
0.062362
0.0569253
0.0472389
0.060093
0.0466765
0.0615505
0.0621302
0.165925
0.0646739
0.0605439
0.0420862
0.0442368
0.0615544
0.040574
0.0578185
0.0569749
0.0494656
0.046987
0.0450124
0.0685761
0.063697
0.0598609
0.0280996
0.0552581
0.0628014
0.0616816
0.0446078
0.0646437
0.0490365
0.0611956
0.0459971
0.128222
0.0583086
0.061855
0.0615189
0.068149
0.0473531
0.0616248
0.0251509
0.0631149
0.0629249
0.0347612
0.061232
0.0484805
0.0410366
0.0604423
0.0633859
0.0598455
0.0444763
0.0588541
0.0493449
0.0607183
0.0382507
0.0379947
0.0625473
0.0499418
0.059111
0.0452466
0.0644307
0.0494082
0.0397082
0.0628303
0.0577618
0.0511455
0.036319
0.0406045
0.0617202
0.0603315
0.0502382
0.0462881
0.0634085
0.045798
0.04171
0.0174806
0.0712763
0.0511195
0.0577726
0.0618914
0.0531412
0.0622652
0.0617888
0.0622499
0.0428529
0.0591643
0.0440348
0.0588904
0.0615534
0.057719
0.0418218
0.0415634
0.0635489
0.0501333
0.0594901
0.0455248
0.188008
0.06122
0.0468833
0.0616481
0.0480307
0.0590564
0.0740931
0.0480441
0.0327142
0.0802013
0.059404
0.0603723
0.0489103
0.217954
0.0340925
0.057241
0.0372458
0.0388581
0.0493925
0.042489
0.053164
0.0608914
0.0474989
0.0423593
0.0365147
0.0405182
0.0599353
0.0634427
0.0606173
0.0409937
0.0426988
0.0286157
0.0576346
0.0575945
0.127386
0.0605558
0.0738936
0.0608783
0.0621304
0.0567874
0.0595705
0.0570579
0.0492992
0.0592809
0.0340508
0.0579614
0.0379628
0.057741
0.0616576
0.060589
0.0495981
0.100914
0.0610832
0.0567327
0.0325533
0.0609332
0.0558716
0.0386538
0.0579109
0.103151
0.0409352
0.0573635
0.0584215
0.105252
0.0195865
0.0562193
0.0491754
0.0572411
0.0337373
0.0568105
0.0568988
0.115139
0.0566532
0.0546381
0.0556654
0.0487846
0.0589447
0.100518
0.0564286
0.0491518
0.0365332
0.0561299
0.061111
0.0387563
0.0588545
0.0604874
0.042533
0.0465244
0.0417585
0.0615241
0.0962304
0.108009
0.0426412
0.0409091
0.0477841
0.244376
0.0560225
0.0544474
0.0954163
0.0564611
0.0486472
0.0563679
0.05512
0.131556
0.114001
0.0467147
0.0563309
0.0765013
0.0410414
0.0393392
0.0376302
0.0357752
0.0458686
0.0377448
0.0585462
0.060579
0.0592926
0.0533395
0.0602556
0.0559828
0.0787002
0.0579311
0.092164
0.0975679
0.0614982
0.0554643
0.0302475
0.121459
0.0595199
0.0338663
0.058216
0.0947148
0.0302207
0.0988056
0.054603
0.118467
0.036061
0.0259264
0.102553
0.0573984
0.0753936
0.0532244
0.0551999
0.0538497
0.105685
0.0457494
0.107965
0.0461573
0.0495792
0.109172
0.0478565
0.0202799
0.044767
0.0463094
0.119358
0.128455
0.109637
0.0593336
0.0378363
0.0549538
0.0592181
0.0472536
0.0547093
0.0468024
0.0531602
0.0572336
0.0551145
0.0903959
0.047311
0.0236581
0.051923
0.0445718
0.0578684
0.0382445
0.0521348
0.25128
0.0290852
0.11015
0.0552923
0.0510734
0.0549786
0.0473372
0.051936
0.0304234
0.0448853
0.0534371
0.13444
0.0443395
0.0544621
0.0258734
0.0930143
0.0400001
0.0438982
0.0456891
0.0537691
0.0517353
0.0857819
0.0562248
0.0565036
0.0807043
0.0503965
0.0577055
0.0729773
0.0454712
0.0469088
0.0578779
0.110487
0.0452314
0.0572296
0.0562369
0.0756379
0.0537471
0.0465758
0.0456261
0.051896
0.0783973
0.0563004
0.0383905
0.0571135
0.05859
0.0535609
0.044266
0.0304054
0.0580591
0.0248833
0.0586535
0.025942
0.0505066
0.112642
0.0967532
0.0898201
0.139424
0.0532071
0.070081
0.0517476
0.0439186
0.0246039
0.105516
0.246372
0.0148466
0.0501806
0.0469326
0.0511796
0.0295526
0.0421528
0.0423355
0.0696013
0.04875
0.032482
0.0482688
0.0537115
0.0431236
0.0514825
0.0527508
0.0322966
0.0390108
0.110361
0.0502158
0.0538105
0.0375821
0.0536927
0.0226342
0.178842
0.0438833
0.0477478
0.186938
0.0469038
0.194932
0.0481918
0.0517185
0.20255
0.0489125
0.0887403
0.209173
0.0458633
0.0358403
0.0617576
0.21414
0.216939
0.0535488
0.0573962
0.0456512
0.0511976
0.0457219
0.0486944
0.0426468
0.0457156
0.0973519
0.118832
0.217908
0.0507646
0.0428314
0.0448076
0.0973202
0.0490466
0.061451
0.0974237
0.0498986
0.0423826
0.0977798
0.0520533
0.032431
0.0208374
0.218736
0.095955
0.0470896
0.224067
0.0347631
0.0429825
0.0396082
0.0396734
0.0499775
0.17014
0.160198
0.0421895
0.0449787
0.150211
0.054614
0.109493
0.0426126
0.0449988
0.0956959
0.171939
0.175569
0.0879267
0.0328681
0.0363744
0.054696
0.0396357
0.0425064
0.0534821
0.0328519
0.0478193
0.0548248
0.0449056
0.138124
0.050477
0.0338339
0.0503692
0.0451184
0.0443833
0.218858
0.0549989
0.0450806
0.062399
0.0422008
0.0398588
0.045271
0.0365567
0.0355867
0.172087
0.0379294
0.0761491
0.0877563
0.0756204
0.0364339
0.050747
0.0482827
0.0442287
0.0444941
0.0329279
0.0933424
0.0475332
0.129185
0.139218
0.0376123
0.122032
0.0415268
0.073521
0.0389627
0.0487677
0.0438436
0.0478846
0.0399068
0.0414049
0.018246
0.0507302
0.217671
0.100485
0.0394384
0.185636
0.191684
0.0464557
0.0327739
0.0353984
0.187337
0.0397647
0.170433
0.0872721
0.0507446
0.0489872
0.188355
0.0717132
0.0441412
0.187823
0.053178
0.0300246
0.0531674
0.0331481
0.040354
0.0328649
0.0749767
0.0416922
0.0461328
0.0814017
0.0735943
0.0465328
0.0171766
0.0410079
0.0420256
0.0368045
0.041414
0.0298524
0.0376569
0.181203
0.0369706
0.0444738
0.0399735
0.0415502
0.0344198
0.0305815
0.0476904
0.0556977
0.0268392
0.0459041
0.0314477
0.0267457
0.0512737
0.0777899
0.16916
0.0405424
0.038418
0.0731472
0.0421382
0.107629
0.214623
0.026609
0.0287113
0.0348554
0.0391981
0.133523
0.128623
0.0431699
0.0693494
0.081625
0.0678378
0.0231875
0.0265481
0.029095
0.036584
0.0362361
0.0332104
0.040439
0.0441479
0.0228949
0.0333072
0.0890803
0.173716
0.040286
0.0376716
0.0395183
0.033388
0.0387068
0.0284488
0.0377381
0.0616799
0.121952
0.032599
0.075735
0.0410917
0.140968
0.0277707
0.150552
0.0862801
0.167208
0.0326822
0.137008
0.0363936
0.0660367
0.0281625
0.0375033
0.129721
0.0544612
0.0232449
0.10006
0.0939629
0.189834
0.0351812
0.151366
0.0319266
0.116296
0.0182027
0.0325077
0.0241037
0.11242
0.146549
0.0828629
0.0748547
0.0844585
0.0612874
0.158218
0.0997813
0.0244053
0.0287285
0.028783
0.0359121
0.0983292
0.0776831
0.045101
0.018397
0.0256089
0.0224926
0.0325354
0.0343287
0.0286387
0.0283671
0.0755143
0.0526135
0.0235263
0.138617
0.043776
0.0586562
0.0372411
0.0189113
0.0217649
0.0280831
0.016057
0.0208272
0.0159144
0.0226635
0.0449603
0.156388
0.076155
0.163722
0.0860521
0.17505
0.2011
0.064443
0.133789
0.209237
0.10455
0.0573991
0.0897074
0.162279
0.0737842
0.049982
0.107903
0.0659591
0.0380107
0.0401729
0.0538366
0.0402397
0.083147
0.108456
0.0520749
0.127592
0.0183966
0.0568206
0.0248276
0.0310985
0.0279293
0.0678472
0.111474
0.0436492
0.0273274
0.037044
0.0689425
0.0205117
0.0565441
0.0295586
0.0202879
0.0490799
0.0475227
0.0583745
0.0404371
0.146487
0.0490078
0.144892
0.0568594
0.0135037
0.0455038
0.0585829
0.16856
0.0163192
0.0542192
0.0453643
0.15832
0.201144
0.143421
0.0931498
0.166844
0.086697
0.122105
0.105098
0.0431172
0.0891407
0.0378672
0.061564
0.0336616
0.047946
0.0988379
0.0532489
0.0559505
0.0647572
0.120716
0.123953
0.0406969
0.0439789
0.133569
0.0236854
0.0578917
0.017408
0.0135892
0.0440591
0.0637461
0.0690612
0.0483055
0.0695919
0.0607672
0.047748
0.0529276
0.0537738
0.0498207
0.0410493
0.0555205
0.0122635
0.058993
0.0792857
0.0356018
0.0735195
0.0113102
0.0150017
0.0381262
0.0542876
0.0124644
0.0171287
0.0181462
0.0274971
0.0147648
0.0154099
0.0122831
0.037444
0.0637292
0.0134123
0.0560854
0.100611
0.0161646
0.0657227
0.0146337
0.061131
0.0784753
0.019906
0.0547991
0.0669227
0.0130319
0.0118484
0.0651103
0.0561968
0.0639556
0.0133238
0.0644932
0.0545368
0.0398593
0.0556094
0.0649649
0.0214751
0.055494
0.0226314
0.0164656
0.0154882
0.101503
0.0545547
0.0492799
0.101046
0.0661041
)
;

boundaryField
{
    patch0
    {
        type            epsilonWallFunction;
        value           nonuniform List<scalar> 
4010
(
0.0360467
0.0360467
0.0385449
0.0385449
0.0554724
0.0554724
0.0590568
0.0590568
0.0420333
0.0420333
0.0616145
0.0616145
0.0628102
0.0628102
0.0646388
0.0646388
0.0646841
0.0646841
0.0521483
0.0521483
0.0659354
0.0659354
0.0656879
0.0656879
0.0297034
0.0297034
0.0669643
0.0669643
0.0666698
0.0666698
0.0662287
0.0662287
0.0347002
0.0347002
0.0667183
0.0667183
0.0312303
0.0312303
0.0673263
0.0673263
0.0204933
0.0204933
0.0630363
0.0630363
0.0368771
0.0368771
0.0669543
0.0669543
0.0631752
0.0631752
0.0710515
0.0710515
0.0722056
0.0722056
0.043666
0.043666
0.0470198
0.0470198
0.046556
0.046556
0.0403199
0.0403199
0.0649788
0.0649788
0.037477
0.037477
0.034478
0.034478
0.0451209
0.0451209
0.0402607
0.0402607
0.06778
0.06778
0.0472364
0.0472364
0.043289
0.043289
0.0390809
0.0390809
0.0698883
0.0698883
0.023865
0.023865
0.0691983
0.0691983
0.0325745
0.0325745
0.0556633
0.0556633
0.0500439
0.0500439
0.0305416
0.0305416
0.0590775
0.0590775
0.0130764
0.0130764
0.0143766
0.0143766
0.0240537
0.0240537
0.0287274
0.0287274
0.0615267
0.0615267
0.0269839
0.0269839
0.0514556
0.0514556
0.0519315
0.0519315
0.0299363
0.0299363
0.055802
0.055802
0.0437021
0.0437021
0.0701498
0.0701498
0.0303117
0.0303117
0.0666313
0.0666313
0.026069
0.026069
0.040231
0.040231
0.0311012
0.0311012
0.058995
0.058995
0.0672588
0.0672588
0.0444786
0.0444786
0.0496771
0.0496771
0.0220324
0.0220324
0.016109
0.016109
0.0663995
0.0663995
0.0396176
0.0396176
0.0504065
0.0504065
0.0501599
0.0501599
0.0412373
0.0412373
0.0605532
0.0605532
0.0529264
0.0529264
0.058985
0.058985
0.0252264
0.0252264
0.0620354
0.0620354
0.0726929
0.0726929
0.0530305
0.0530305
0.0223481
0.0223481
0.0356013
0.0356013
0.0477959
0.0477959
0.0453777
0.0453777
0.0675496
0.0675496
0.0118909
0.0118909
0.0175735
0.0175735
0.0683594
0.0683594
0.07233
0.07233
0.0532486
0.0532486
0.0561609
0.0561609
0.0226392
0.0226392
0.0320178
0.0320178
0.0609795
0.0609795
0.0629043
0.0629043
0.0709015
0.0709015
0.0305206
0.0305206
0.0551178
0.0551178
0.024567
0.024567
0.0706152
0.0706152
0.072098
0.072098
0.0575277
0.0575277
0.0563752
0.0563752
0.0567802
0.0567802
0.0569151
0.0569151
0.0691959
0.0691959
0.0557374
0.0557374
0.0617092
0.0617092
0.0532209
0.0532209
0.0453213
0.0453213
0.0514103
0.0514103
0.0587784
0.0587784
0.0183214
0.0183214
0.0564602
0.0564602
0.0662305
0.0662305
0.0537324
0.0537324
0.0600237
0.0600237
0.030052
0.030052
0.0424577
0.0424577
0.0164613
0.0164613
0.0164773
0.0164773
0.0668297
0.0668297
0.0610012
0.0610012
0.0452991
0.0452991
0.0525347
0.0525347
0.0555234
0.0555234
0.07474
0.07474
0.0616049
0.0616049
0.0568732
0.0568732
0.321173
0.321173
0.0534078
0.0534078
0.0311313
0.0311313
0.0594304
0.0594304
0.0504041
0.0504041
0.0526409
0.0526409
0.0672525
0.0672525
0.0459265
0.0459265
0.0532581
0.0532581
0.0667481
0.0667481
0.203881
0.203881
0.203881
0.33384
0.33384
0.33384
0.0609442
0.0609442
0.0363425
0.0363425
0.0586135
0.0586135
0.0240502
0.0240502
0.0663658
0.0663658
0.0528561
0.0528561
0.0503178
0.0503178
0.085429
0.085429
0.085429
0.0391823
0.0391823
0.0613487
0.0613487
0.0622265
0.0622265
0.0624051
0.0624051
0.0421763
0.0421763
0.050819
0.050819
0.0625657
0.0625657
0.388501
0.388501
0.0505393
0.0505393
0.0448052
0.0448052
0.0620068
0.0620068
0.0448622
0.0448622
0.0449184
0.0449184
0.0609211
0.0609211
0.0644322
0.0644322
0.0539596
0.0539596
0.0596864
0.0596864
0.0587509
0.0587509
0.0441031
0.0441031
0.0649544
0.0649544
0.0555057
0.0555057
0.0713965
0.0713965
0.0541761
0.0541761
0.0556079
0.0556079
0.0476913
0.0476913
0.0627696
0.0627696
0.0384026
0.0384026
0.0653462
0.0653462
0.0654593
0.0654593
0.0662411
0.0662411
0.0554593
0.0554593
0.0654654
0.0654654
0.0131501
0.0131501
0.0333964
0.0333964
0.0442047
0.0442047
0.0685947
0.0685947
0.0607311
0.0607311
0.0535168
0.0535168
0.0558873
0.0558873
0.0652722
0.0652722
0.0623559
0.0623559
0.0656561
0.0656561
0.0671755
0.0671755
0.0907394
0.0907394
0.0907394
0.0707041
0.0707041
0.0583118
0.0583118
0.0613038
0.0613038
0.0568326
0.0568326
0.125833
0.125833
0.0370694
0.0370694
0.0624937
0.0624937
0.0668368
0.0668368
0.0441785
0.0441785
0.0666788
0.0666788
0.0675876
0.0675876
0.0411304
0.0411304
0.0289033
0.0289033
0.296746
0.296746
0.296746
0.0478917
0.0478917
0.0585498
0.0585498
0.0678974
0.0678974
0.067985
0.067985
0.0693477
0.0693477
0.0553739
0.0553739
0.0641139
0.0641139
0.0581099
0.0581099
0.0675198
0.0675198
0.051025
0.051025
0.0614317
0.0614317
0.0537591
0.0537591
0.0642226
0.0642226
0.0682154
0.0682154
0.066714
0.066714
0.0712389
0.0712389
0.0633911
0.0633911
0.0580637
0.0580637
0.0692171
0.0692171
0.0593598
0.0593598
0.26659
0.26659
0.069049
0.069049
0.0633071
0.0633071
0.106076
0.106076
0.0718774
0.0718774
0.390299
0.390299
0.390299
0.0675037
0.0675037
0.0686879
0.0686879
0.0653988
0.0653988
0.0967397
0.0967397
0.0967397
0.0664404
0.0664404
0.0658579
0.0658579
0.0668983
0.0668983
0.0450551
0.0450551
0.283518
0.283518
0.0285286
0.0285286
0.0678975
0.0678975
0.0588223
0.0588223
0.0549565
0.0549565
0.056208
0.056208
0.0318005
0.0318005
0.0599699
0.0599699
0.0698365
0.0698365
0.0617913
0.0617913
0.0603715
0.0603715
0.0678733
0.0678733
0.0701142
0.0701142
0.0659319
0.0659319
0.0626074
0.0626074
0.0685045
0.0685045
0.0651493
0.0651493
0.0669216
0.0669216
0.0711384
0.0711384
0.0562581
0.0562581
0.0645424
0.0645424
0.0475629
0.0475629
0.0216168
0.0216168
0.0533446
0.0533446
0.0513342
0.0513342
0.0973574
0.0973574
0.0577773
0.0577773
0.0494095
0.0494095
0.0474482
0.0474482
0.0689012
0.0689012
0.0690071
0.0690071
0.061726
0.061726
0.0676807
0.0676807
0.0722312
0.0722312
0.0623369
0.0623369
0.0620303
0.0620303
0.0966357
0.0966357
0.145891
0.145891
0.145891
0.0686774
0.0686774
0.0704705
0.0704705
0.0276558
0.0276558
0.0529387
0.0529387
0.0632038
0.0632038
0.0708288
0.0708288
0.0692423
0.0692423
0.0671065
0.0671065
0.0678907
0.0678907
0.0432529
0.0432529
0.0721681
0.0721681
0.0672685
0.0672685
0.0154655
0.0154655
0.04385
0.04385
0.0675162
0.0675162
0.0444284
0.0444284
0.0512688
0.0512688
0.0674452
0.0674452
0.12811
0.12811
0.12811
0.0648625
0.0648625
0.0663767
0.0663767
0.062322
0.062322
0.0684592
0.0684592
0.0711863
0.0711863
0.0220243
0.0220243
0.0656358
0.0656358
0.0671012
0.0671012
0.0567639
0.0567639
0.0345233
0.0345233
0.0514261
0.0514261
0.0709203
0.0709203
0.0594978
0.0594978
0.0615504
0.0615504
0.0260856
0.0260856
0.0660232
0.0660232
0.0690051
0.0690051
0.0689565
0.0689565
0.0679987
0.0679987
0.0449232
0.0449232
0.0598789
0.0598789
0.0658739
0.0658739
0.0468821
0.0468821
0.0724018
0.0724018
0.0593997
0.0593997
0.0689533
0.0689533
0.0695607
0.0695607
0.0594333
0.0594333
0.064295
0.064295
0.063837
0.063837
0.0674766
0.0674766
0.0585264
0.0585264
0.068176
0.068176
0.0481197
0.0481197
0.0723148
0.0723148
0.0693808
0.0693808
0.0694087
0.0694087
0.0709662
0.0709662
0.0675155
0.0675155
0.057722
0.057722
0.0497954
0.0497954
0.0616062
0.0616062
0.0480497
0.0480497
0.0668847
0.0668847
0.0667346
0.0667346
0.265755
0.265755
0.0675572
0.0675572
0.0500587
0.0500587
0.0713248
0.0713248
0.0675512
0.0675512
0.179697
0.179697
0.162711
0.162711
0.0667181
0.0667181
0.0346045
0.0346045
0.0546283
0.0546283
0.0134546
0.0134546
0.0694318
0.0694318
0.065245
0.065245
0.0265936
0.0265936
0.0716383
0.0716383
0.0670539
0.0670539
0.0661479
0.0661479
0.0683972
0.0683972
0.0661995
0.0661995
0.0680201
0.0680201
0.0605926
0.0605926
0.0580617
0.0580617
0.0712585
0.0712585
0.070157
0.070157
0.0648896
0.0648896
0.0687161
0.0687161
0.0677695
0.0677695
0.0662531
0.0662531
0.0718543
0.0718543
0.0424752
0.0424752
0.0667886
0.0667886
0.06645
0.06645
0.0631795
0.0631795
0.0674413
0.0674413
0.0671524
0.0671524
0.0524783
0.0524783
0.069614
0.069614
0.0700104
0.0700104
0.0623361
0.0623361
0.064254
0.064254
0.0463092
0.0463092
0.0678448
0.0678448
0.0712213
0.0712213
0.069039
0.069039
0.195252
0.195252
0.058535
0.058535
0.0711454
0.0711454
0.0673904
0.0673904
0.0702255
0.0702255
0.215233
0.215233
0.215233
0.0688554
0.0688554
0.0621914
0.0621914
0.064106
0.064106
0.0665289
0.0665289
0.0397661
0.0397661
0.0486109
0.0486109
0.0474098
0.0474098
0.0538106
0.0538106
0.126128
0.126128
0.126128
0.0682706
0.0682706
0.0630396
0.0630396
0.0675532
0.0675532
0.0657562
0.0657562
0.0676386
0.0676386
0.0715117
0.0715117
0.057713
0.057713
0.0691602
0.0691602
0.0691138
0.0691138
0.0708909
0.0708909
0.0614551
0.0614551
0.0604419
0.0604419
0.0666826
0.0666826
0.0509188
0.0509188
0.0616101
0.0616101
0.0665178
0.0665178
0.0596859
0.0596859
0.062157
0.062157
0.040145
0.040145
0.0648241
0.0648241
0.0651906
0.0651906
0.0612796
0.0612796
0.0393041
0.0393041
0.0602278
0.0602278
0.0704187
0.0704187
0.0677919
0.0677919
0.0590962
0.0590962
0.0696025
0.0696025
0.0560304
0.0560304
0.0706045
0.0706045
0.0704585
0.0704585
0.0645727
0.0645727
0.0170816
0.0170816
0.0698513
0.0698513
0.0638015
0.0638015
0.0638643
0.0638643
0.0700345
0.0700345
0.0705966
0.0705966
0.0357842
0.0357842
0.066909
0.066909
0.288014
0.288014
0.288014
0.0703628
0.0703628
0.0463977
0.0463977
0.0715577
0.0715577
0.0665954
0.0665954
0.0662549
0.0662549
0.0594843
0.0594843
0.0712047
0.0712047
0.0649185
0.0649185
0.0691475
0.0691475
0.0723579
0.0723579
0.0632246
0.0632246
0.0665048
0.0665048
0.0552573
0.0552573
0.066958
0.066958
0.0560492
0.0560492
0.061724
0.061724
0.0268631
0.0268631
0.0541273
0.0541273
0.0504191
0.0504191
0.0664282
0.0664282
0.0660971
0.0660971
0.0709773
0.0709773
0.0696687
0.0696687
0.0572018
0.0572018
0.0665007
0.0665007
0.057797
0.057797
0.0417763
0.0417763
0.0626645
0.0626645
0.0578541
0.0578541
0.0540185
0.0540185
0.0362627
0.0362627
0.0690999
0.0690999
0.0667231
0.0667231
0.0667237
0.0667237
0.070087
0.070087
0.0704046
0.0704046
0.065599
0.065599
0.0660196
0.0660196
0.0610172
0.0610172
0.0654634
0.0654634
0.0691331
0.0691331
0.066116
0.066116
0.0675284
0.0675284
0.0624243
0.0624243
0.0192787
0.0192787
0.0679425
0.0679425
0.057016
0.057016
0.0623924
0.0623924
0.0654067
0.0654067
0.061152
0.061152
0.066742
0.066742
0.0657404
0.0657404
0.0688157
0.0688157
0.0472393
0.0472393
0.06496
0.06496
0.0663636
0.0663636
0.0619721
0.0619721
0.0632143
0.0632143
0.0390431
0.0390431
0.0612743
0.0612743
0.0663794
0.0663794
0.0677678
0.0677678
0.0595136
0.0595136
0.0632495
0.0632495
0.0497291
0.0497291
0.060125
0.060125
0.0647939
0.0647939
0.0716167
0.0716167
0.0646346
0.0646346
0.0643381
0.0643381
0.0624845
0.0624845
0.0725742
0.0725742