/*--------------------------------*- C++ -*----------------------------------*\
  =========                 |
  \\      /  F ield         | OpenFOAM: The Open Source CFD Toolbox
   \\    /   O peration     | Website:  https://openfoam.org
    \\  /    A nd           | Version:  8
     \\/     M anipulation  |
\*---------------------------------------------------------------------------*/
FoamFile
{
    version     2.0;
    format      ascii;
    class       volScalarField;
    location    "0.55";
    object      k;
}
// * * * * * * * * * * * * * * * * * * * * * * * * * * * * * * * * * * * * * //

dimensions      [0 2 -2 0 0 0 0];

internalField   nonuniform List<scalar> 
1924
(
0.0271396
0.02837
0.0362512
0.0377559
0.0300648
0.038837
0.0393224
0.0400918
0.0401052
0.0347858
0.0406223
0.0405209
0.0241484
0.0410473
0.0409229
0.0407649
0.0267413
0.0409475
0.0246647
0.0411974
0.018726
0.0396475
0.0279348
0.0410474
0.0396968
0.0428443
0.0432504
0.0308485
0.0323564
0.0321622
0.0296318
0.0404375
0.0277323
0.0267013
0.0315368
0.0296203
0.0415562
0.0324717
0.0306474
0.0290009
0.0423939
0.0208311
0.0421462
0.0257573
0.0362197
0.0337312
0.0242806
0.0377149
0.0137782
0.0147567
0.0205934
0.0234802
0.039029
0.0220102
0.0344177
0.0347075
0.023966
0.0362826
0.0308113
0.0422999
0.0245231
0.0409098
0.0221872
0.0292188
0.0241885
0.0376986
0.0411637
0.0315932
0.0335353
0.019568
0.0159988
0.0408213
0.0288965
0.0339033
0.0337924
0.0298872
0.0383506
0.0350274
0.0376666
0.0215996
0.0389949
0.0433963
0.0350621
0.0197514
0.0268837
0.0330852
0.0315906
0.0412644
0.0129582
0.0168247
0.0416224
0.0432467
0.035149
0.0364677
0.0198151
0.0248755
0.038544
0.039361
0.0426291
0.0245715
0.0360329
0.0209876
0.0425205
0.0431164
0.0370751
0.0365481
0.0366938
0.0368631
0.0419021
0.036247
0.0388477
0.0351274
0.0316249
0.0343356
0.0375752
0.0172943
0.0366388
0.0407873
0.0356644
0.0381172
0.0240778
0.0159054
0.0162138
0.0160578
0.0409869
0.0385585
0.0317922
0.0348531
0.0361265
0.0220259
0.0387982
0.0367602
0.0277512
0.0352197
0.0246463
0.0378506
0.033912
0.034879
0.0411743
0.0319052
0.0352453
0.0409569
0.0174121
0.0243889
0.0385453
0.0272566
0.0375992
0.0209144
0.0407664
0.0352777
0.0338626
0.0159677
0.0288887
0.0386855
0.039082
0.0391616
0.0158366
0.0341366
0.0392081
0.0314993
0.0339466
0.0314504
0.0389754
0.0164999
0.03145
0.03849
0.0399837
0.0155156
0.0379713
0.0375411
0.030978
0.0402234
0.0361723
0.0428296
0.0356383
0.0364325
0.0326695
0.0150561
0.0286939
0.0403791
0.0405075
0.0407886
0.03614
0.0404239
0.0138244
0.0257371
0.0312739
0.0417585
0.0384236
0.0352806
0.0365049
0.0403533
0.03912
0.04051
0.0411252
0.016623
0.0425908
0.0375874
0.0388169
0.0369952
0.0227084
0.0276485
0.0391427
0.0409946
0.0310607
0.0410015
0.0413022
0.0297883
0.0236356
0.021894
0.0172353
0.0374458
0.0414451
0.0414632
0.0420674
0.0361068
0.0398491
0.0374549
0.0412747
0.0341802
0.0388092
0.0353808
0.039878
0.0415674
0.0409443
0.04281
0.0395597
0.0372939
0.041967
0.0380747
0.0307784
0.0418971
0.0396473
0.0194922
0.0430487
0.0262285
0.0412892
0.0417507
0.0403789
0.0173486
0.0408671
0.0407065
0.041038
0.0316789
0.031911
0.0233063
0.0414289
0.0376712
0.0359205
0.0364847
0.0248316
0.0180564
0.0422202
0.038841
0.0382707
0.0414218
0.0424984
0.0407787
0.0393158
0.0416762
0.040329
0.0410156
0.0427148
0.0364911
0.0402744
0.0326106
0.0194939
0.0352227
0.0343735
0.0191052
0.0374303
0.0334595
0.0325729
0.0419584
0.0418584
0.0388664
0.041341
0.0431926
0.0390895
0.0391616
0.0208782
0.0182034
0.0417546
0.0424742
0.0227482
0.0350265
0.0394828
0.0198533
0.0419766
0.0412191
0.0414222
0.0306043
0.0431589
0.0411952
0.0154746
0.0309315
0.0412587
0.0313999
0.0342932
0.0412501
0.0203442
0.0401585
0.0408296
0.0391253
0.0416595
0.0428425
0.0198225
0.0405179
0.0412584
0.0366987
0.0264573
0.034647
0.0426558
0.0381477
0.0387783
0.0221764
0.0407042
0.0418809
0.0418595
0.0414858
0.0313844
0.0383194
0.0405912
0.0323076
0.0433058
0.0378753
0.0419378
0.0422176
0.037923
0.0399412
0.0399119
0.0412378
0.0377346
0.0415458
0.0328638
0.0432177
0.0419968
0.0420437
0.0426733
0.0412701
0.0371529
0.0335979
0.0390312
0.0331156
0.0410104
0.0409795
0.0293319
0.0412679
0.0340172
0.0429154
0.0415182
0.0225089
0.0279263
0.040975
0.0264923
0.0358004
0.0140389
0.0420557
0.0405426
0.0222198
0.042949
0.0410893
0.0407461
0.041586
0.0409721
0.0414781
0.038601
0.0375786
0.0427918
0.0423471
0.0402086
0.0417879
0.0415496
0.0407838
0.0430897
0.0113212
0.040981
0.0408504
0.0396937
0.0412289
0.0411293
0.0348454
0.0422112
0.0422971
0.0393238
0.0399375
0.0320296
0.0413556
0.0428824
0.0418939
0.0289298
0.037719
0.042792
0.0411708
0.0423739
0.0159551
0.0420195
0.0392733
0.0398636
0.0409027
0.0289527
0.0330972
0.0328489
0.0354801
0.0133138
0.0415254
0.0394198
0.0412385
0.0407513
0.0415443
0.0428937
0.0373767
0.0419462
0.0419234
0.0426465
0.0387777
0.0383225
0.0409469
0.034464
0.0388169
0.0408949
0.0382649
0.0390495
0.0293217
0.0403906
0.040348
0.0386655
0.0286924
0.038427
0.0424363
0.0412999
0.0377499
0.0420861
0.0366444
0.0425275
0.0424984
0.0400879
0.0165959
0.0422229
0.0399538
0.039956
0.0424348
0.0425366
0.0270435
0.0409844
0.0192889
0.042438
0.0320751
0.0429654
0.0408406
0.0407864
0.0381166
0.0427726
0.0402023
0.0421073
0.0432551
0.0395049
0.0408749
0.0363093
0.0410299
0.0364324
0.0390546
0.0226644
0.035821
0.0342321
0.0407514
0.040641
0.0426839
0.042149
0.0368848
0.0410765
0.0374043
0.0298906
0.0392663
0.0374938
0.0355412
0.0272176
0.0419149
0.0409063
0.0409606
0.0423127
0.0424482
0.0404372
0.0406027
0.0387513
0.0406544
0.0419844
0.0407188
0.0412439
0.0391541
0.0180906
0.0414301
0.0370667
0.039146
0.0404364
0.0386234
0.0409241
0.0404782
0.0418907
0.0324423
0.0402607
0.0408237
0.0392068
0.0396824
0.0288465
0.0387137
0.0408173
0.041548
0.0381178
0.0395299
0.0336203
0.0381902
0.0400949
0.0429388
0.0400404
0.0399205
0.03937
0.043347
0.0423081
0.0409459
0.0362839
0.0407719
0.0370344
0.0393223
0.0429305
0.0433403
0.0300018
0.0248188
0.0412484
0.0423714
0.035486
0.041767
0.0378039
0.032599
0.0336286
0.0399408
0.0425017
0.0380337
0.0250361
0.0403017
0.0387047
0.0320625
0.0221248
0.0325368
0.0387003
0.0407279
0.028009
0.0282981
0.0403232
0.0401036
0.0408769
0.0396201
0.0408724
0.037006
0.0412522
0.0336869
0.0272146
0.0219138
0.030887
0.0265576
0.0399739
0.035885
0.0345396
0.0394425
0.0396775
0.034405
0.0362568
0.0393897
0.0286175
0.0384432
0.0384346
0.0400476
0.0411317
0.0393789
0.0300871
0.0393891
0.0297109
0.0312572
0.0395477
0.0350648
0.0392241
0.040557
0.0421936
0.0392563
0.0256364
0.0239792
0.0403253
0.0334907
0.0374701
0.0326615
0.0407323
0.0366549
0.0182969
0.023669
0.0225034
0.0393653
0.0394313
0.0380954
0.0398731
0.0350199
0.0228603
0.0403905
0.042311
0.0268205
0.037672
0.0414626
0.0433498
0.0343126
0.0352062
0.033233
0.0405042
0.0407915
0.0315084
0.0390607
0.0389916
0.0402408
0.043015
0.0348242
0.0269615
0.0299387
0.0386241
0.0368666
0.0397415
0.0396814
0.0422741
0.0288909
0.0270387
0.0403431
0.0430672
0.0335174
0.0406867
0.0402624
0.037932
0.0343295
0.0373412
0.0255687
0.0403272
0.028229
0.0395786
0.0384599
0.0390036
0.0388844
0.0382771
0.0405012
0.0388274
0.040647
0.0394478
0.040471
0.0394077
0.038797
0.0353337
0.0388339
0.0335707
0.0428168
0.0286426
0.0389549
0.0345589
0.033205
0.0404244
0.0344026
0.0353639
0.0244525
0.0290073
0.0376558
0.0390553
0.0263296
0.0399955
0.0405483
0.0362551
0.037962
0.0387314
0.0350486
0.0187052
0.039449
0.0406287
0.0372572
0.042141
0.0407298
0.0236614
0.0313963
0.0393829
0.0395115
0.0398333
0.0395239
0.0398152
0.0422327
0.0392916
0.0288224
0.0384732
0.0262595
0.0317104
0.0417569
0.0397791
0.0397296
0.0349578
0.0401918
0.0326702
0.0304206
0.0384755
0.0390837
0.0356688
0.0337791
0.0393043
0.030447
0.0253344
0.0391793
0.0386793
0.0397541
0.0383607
0.0369299
0.0358187
0.0246122
0.0387085
0.0292256
0.039795
0.043015
0.0387394
0.0343679
0.0402019
0.0197347
0.0292083
0.0401206
0.0340146
0.0287763
0.0406438
0.0121355
0.00971369
0.0276389
0.0342057
0.0375925
0.038868
0.0340112
0.0302952
0.0388392
0.039625
0.0397271
0.0394139
0.0388531
0.0399016
0.0339218
0.0249821
0.0391086
0.0347926
0.0119544
0.0402273
0.0238599
0.0374141
0.030446
0.0365864
0.0373723
0.0392765
0.0389418
0.0419927
0.0269776
0.0290923
0.0427984
0.0245706
0.0269966
0.0290311
0.0400133
0.0254949
0.0392915
0.0402457
0.0360517
0.0390814
0.0323771
0.0390773
0.0378397
0.0266777
0.0388692
0.0403204
0.0389297
0.0318448
0.0388259
0.0321807
0.0382802
0.0371025
0.0390698
0.0281389
0.0387092
0.0335055
0.0310806
0.0417614
0.0355296
0.0414261
0.0254332
0.040664
0.0388081
0.0393627
0.0317962
0.0333521
0.0349717
0.0392588
0.0388398
0.0382109
0.0353918
0.0381951
0.0205923
0.038764
0.035253
0.0213776
0.0352351
0.0390803
0.0232516
0.0319009
0.0404795
0.025609
0.0402219
0.0390798
0.0375067
0.0255322
0.0373394
0.0322624
0.0135954
0.0357278
0.0304153
0.0398879
0.0257499
0.038963
0.036253
0.0344117
0.0424278
0.0398779
0.0267826
0.0395345
0.0372476
0.0378525
0.039667
0.0391295
0.0316487
0.0404655
0.0326861
0.0361669
0.0384222
0.0384736
0.0383691
0.029738
0.0398866
0.0361384
0.0119749
0.0402125
0.020572
0.0384878
0.0384659
0.0152868
0.0350688
0.0385415
0.0381308
0.040054
0.0353413
0.0416196
0.0394134
0.0286331
0.0305676
0.0403885
0.0389153
0.0347141
0.0365533
0.026715
0.0255821
0.0397728
0.0398659
0.0389778
0.0237689
0.0338751
0.0391337
0.0267476
0.038365
0.0299446
0.0330472
0.035715
0.0355706
0.0332079
0.0416093
0.0368858
0.0231361
0.0314618
0.0330587
0.0104047
0.038726
0.0223293
0.0359608
0.0400379
0.0239375
0.0389891
0.0384233
0.0391533
0.0406177
0.0394853
0.039629
0.0371502
0.0332989
0.0164631
0.039471
0.0380563
0.0379478
0.0369662
0.0402436
0.0342272
0.0405082
0.0316587
0.0239368
0.0363684
0.0279705
0.0380314
0.0381278
0.038886
0.0279084
0.0383017
0.0389187
0.038174
0.0222447
0.0369419
0.0181641
0.0280977
0.0392688
0.0287875
0.0379519
0.0367386
0.0260795
0.0242191
0.0404469
0.0375408
0.0301027
0.0359346
0.0326325
0.0322528
0.0422875
0.0414223
0.0385358
0.0370149
0.0402208
0.0379153
0.0353598
0.0391801
0.0311994
0.0400983
0.0357892
0.0387037
0.0393241
0.0268668
0.0159718
0.0357225
0.0202078
0.0235988
0.0390188
0.0373408
0.0391833
0.0304218
0.0403653
0.0344432
0.0378626
0.0250225
0.0360834
0.0398312
0.0172861
0.033546
0.00848682
0.0314143
0.040265
0.0315395
0.0336609
0.036402
0.0417121
0.0283485
0.0391396
0.0394556
0.0378602
0.0383288
0.0287208
0.0277028
0.0367509
0.0244508
0.0384062
0.0402314
0.0205949
0.0391369
0.0386644
0.039567
0.0338875
0.0403428
0.0386306
0.0335925
0.0371269
0.0381792
0.0392445
0.0377783
0.0262744
0.0229677
0.0356293
0.0384068
0.0391683
0.0328307
0.0375102
0.0360356
0.0251792
0.0350464
0.0399221
0.0400384
0.0326137
0.0382363
0.029863
0.0347142
0.0402113
0.0363269
0.0328044
0.0403181
0.0405017
0.0365625
0.027262
0.0378758
0.0306486
0.0403869
0.0391694
0.0365151
0.0355094
0.0391808
0.0389853
0.0366332
0.0382028
0.0375736
0.0390844
0.0375127
0.0120087
0.0260579
0.0284384
0.0390496
0.0369802
0.0388984
0.0362404
0.0306038
0.027062
0.0339289
0.035433
0.039684
0.0289251
0.0292931
0.0373472
0.040791
0.0319734
0.0381638
0.0325684
0.0402976
0.0414431
0.0393629
0.0403412
0.038669
0.0336462
0.03886
0.0388335
0.0390284
0.0377179
0.0382678
0.0318314
0.038213
0.0384281
0.0416164
0.0386209
0.0382775
0.0389979
0.0348687
0.0390642
0.0329459
0.035478
0.0217595
0.0325844
0.0269136
0.0399678
0.0385756
0.0331351
0.0300046
0.040395
0.0305148
0.038044
0.0359673
0.0390816
0.0385778
0.0249376
0.0401712
0.0363787
0.0384772
0.0155011
0.0389593
0.03674
0.0185994
0.0313755
0.0341263
0.0289862
0.0391484
0.0403601
0.0391231
0.0370636
0.0399954
0.015492
0.0154561
0.0384595
0.0389506
0.0399841
0.0385438
0.038635
0.0313708
0.0349443
0.0373311
0.0330506
0.0155688
0.0389534
0.0198833
0.031998
0.0390253
0.0395856
0.0388678
0.0320022
0.0391648
0.0102371
0.00979309
0.0417993
0.0327707
0.0382905
0.0359759
0.0355421
0.0388047
0.0390956
0.0317563
0.0402304
0.035945
0.0349788
0.0348089
0.038331
0.0360328
0.0146039
0.0276286
0.0400274
0.0386761
0.0401609
0.036447
0.0342412
0.0386884
0.0349311
0.0333372
0.0303033
0.0368048
0.0401045
0.0134161
0.0297593
0.030774
0.0374744
0.0157616
0.0385632
0.0370842
0.0157501
0.00919133
0.0383334
0.033009
0.0401442
0.0398155
0.0391773
0.0368252
0.032481
0.0381537
0.0322164
0.0388488
0.0390854
0.0191708
0.0163251
0.0383956
0.0116318
0.0310389
0.0388532
0.0293709
0.0372345
0.036847
0.0334558
0.032239
0.0314309
0.0417037
0.0396829
0.0381389
0.0229774
0.0360407
0.0392968
0.0388183
0.0310881
0.0401013
0.0332249
0.038696
0.0319815
0.0256182
0.0374467
0.038955
0.0388117
0.0169043
0.0326289
0.0388572
0.0213274
0.0159719
0.0393562
0.0264825
0.0386901
0.0331529
0.0293202
0.0382933
0.0395926
0.038126
0.0312375
0.0376404
0.0335455
0.0384699
0.0282352
0.0281258
0.0391891
0.0338097
0.0378036
0.0315786
0.0400085
0.0336862
0.0289162
0.0393226
0.0372134
0.0342682
0.0061779
0.00670233
0.0389027
0.038306
0.0339287
0.0320314
0.0396009
0.0317873
0.0296838
0.0168516
0.017415
0.0342537
0.0372185
0.0389778
0.0351686
0.0390735
0.0388621
0.0390743
0.0304265
0.0377594
0.0310699
0.0376983
0.03876
0.0371753
0.0301222
0.0299888
0.0396572
0.0338765
0.0379864
0.0317944
0.0193868
0.03871
0.0324373
0.0387994
0.0329655
0.0376857
0.0178123
0.0328585
0.0254414
0.0207137
0.0379489
0.0382514
0.033361
0.023005
0.0261539
0.0369918
0.0274866
0.0283685
0.0335545
0.0302999
0.0351817
0.0385491
0.0326102
0.0302855
0.0271667
0.0293407
0.0381416
0.0396099
0.0384325
0.0294491
0.0303935
0.0230112
0.037075
0.0370694
0.0257697
0.038327
0.0178374
0.0385444
0.0390404
0.0367954
0.0379853
0.0368274
0.0335062
0.0377785
0.0261281
0.0372644
0.0278637
0.0371414
0.0388348
0.0384343
0.0336347
0.0137932
0.0386327
0.0367727
0.0253533
0.0385756
0.0363061
0.0284376
0.0371893
0.0140018
0.0295133
0.0369881
0.0374349
0.0141943
0.0175973
0.0365522
0.03338
0.0369115
0.0257307
0.0367201
0.0368313
0.0207121
0.0366656
0.0357655
0.0362132
0.0332729
0.0377514
0.0137299
0.0365579
0.0333745
0.0272378
0.0364297
0.0386477
0.0283732
0.037716
0.0383872
0.0301433
0.0321559
0.0297907
0.0388185
0.013401
0.0144747
0.0303461
0.0294557
0.0327056
0.02481
0.0364842
0.0356782
0.0195739
0.0365665
0.0332044
0.0365515
0.0360628
0.0217177
0.0150133
0.0322051
0.036557
0.0182559
0.00700354
0.00681368
0.0281581
0.0270054
0.0318222
0.028252
0.0375555
0.0384046
0.0378756
0.035193
0.0382605
0.0364571
0.0113656
0.0373118
0.0129042
0.0134201
0.0388074
0.0361718
0.0241442
0.0156621
0.0379739
0.0258629
0.0374121
0.0211061
0.0238994
0.0217533
0.0357733
0.024861
0.0271491
0.0217896
0.0223289
0.0370774
0.0180294
0.0351401
0.036111
0.0144128
0.0227917
0.0317618
0.0231146
0.0319866
0.0124712
0.0232762
0.0328509
0.0184668
0.0313
0.03202
0.0184907
0.0162547
0.0233386
0.0379014
0.0280056
0.0359209
0.0378488
0.0324613
0.0358974
0.0322794
0.0351549
0.0372089
0.0360997
0.0204112
0.0324992
0.0204926
0.0345622
0.0312508
0.0372891
0.02818
0.0349319
0.0254176
0.0235201
0.0234011
0.0361473
0.034265
0.036035
0.0326083
0.0345685
0.0240663
0.031364
0.0352673
0.0167524
0.0311391
0.0357651
0.0216626
0.0207465
0.0290805
0.0308987
0.0317831
0.0354512
0.0345467
0.0196698
0.0365885
0.0366875
0.0188637
0.0338726
0.0372115
0.0176959
0.0316326
0.0323582
0.0372665
0.0234416
0.0315453
0.0370084
0.036569
0.0180437
0.0355073
0.032264
0.0317155
0.0346046
0.011695
0.0366169
0.0282997
0.036955
0.0375827
0.0354224
0.0311103
0.0242309
0.0373493
0.0211956
0.0376083
0.0217214
0.0339284
0.0148481
0.0212982
0.0202917
0.0171629
0.0352434
0.017174
0.0346429
0.0309115
0.0210362
0.0233338
0.0253729
0.0149365
0.0338734
0.0323793
0.0343214
0.0237753
0.0301143
0.0302092
0.0170572
0.0331309
0.025627
0.0330302
0.0355056
0.0305378
0.0345219
0.0350412
0.0254869
0.0285899
0.0234228
0.0338745
0.0355433
0.0278853
0.0354805
0.0199008
0.020314
0.0309631
0.013318
0.0209668
0.0322958
0.0215953
0.0329796
0.0345754
0.0221736
0.0332068
0.0201347
0.0226555
0.0319598
0.0270247
0.0157566
0.0230013
0.0231831
0.035412
0.0372528
0.0318428
0.0343347
0.0318682
0.0332924
0.0303683
0.0317784
0.0122894
0.014054
0.0232436
0.034169
0.0303872
0.03134
0.0214098
0.0334519
0.0157533
0.0214047
0.0338227
0.0302209
0.021467
0.0141518
0.0252091
0.0188314
0.0232927
0.0212195
0.0323775
0.024162
0.0264774
0.0306486
0.0289244
0.0289352
0.03385
0.0196124
0.0188256
0.0300967
0.0314101
0.0180234
0.0358667
0.0233041
0.030455
0.0315361
0.0132797
0.0197092
0.0199852
0.0200135
0.0254223
0.0272857
0.0359054
0.0289132
0.0302635
0.035375
0.025507
0.0328537
0.0359644
0.031568
0.0170412
0.0340417
0.0260186
0.0339899
0.01292
0.0312039
0.0232974
0.0360387
0.0314765
0.0100131
0.0122646
0.0290357
0.0317333
0.0274667
0.0268427
0.0197291
0.0280012
0.011431
0.0208832
0.0181092
0.0273745
0.0341641
0.0330418
0.0312177
0.0312671
0.025509
0.0208444
0.0327196
0.0163093
0.0171399
0.0279063
0.0157077
0.0297569
0.0177608
0.0287292
0.0332466
0.0309987
0.0328549
0.0289692
0.0298082
0.0172311
0.0341571
0.0232153
0.0138858
0.028975
0.0207498
0.022094
0.0322157
0.0254212
0.0267485
0.020849
0.0291213
0.019607
0.0199068
0.0341606
0.0333555
0.0209333
0.0174775
0.0311695
0.0209032
0.0352341
0.0240194
0.00899849
0.0257805
0.0292928
0.0256017
0.0179894
0.0299905
0.0320601
0.0121733
0.0114428
0.0322501
0.0165515
0.0295225
0.0301325
0.027537
0.0298122
0.02391
0.0278743
0.020428
0.0276307
0.0312876
0.029214
0.029888
0.0264766
0.024328
0.0132938
0.00927579
0.0223314
0.0319475
0.0247924
0.022516
0.0345676
0.018422
0.0195094
0.0294194
0.0283715
0.0176883
0.0301899
0.0230458
0.0230042
0.0221776
0.0234388
0.0267024
0.0288018
0.016655
0.0162505
0.0306837
0.0170988
0.0190231
0.016833
0.0203016
0.0223488
0.0236725
0.0274733
0.0273574
0.01045
0.00749058
0.0311311
0.0201009
0.0257762
0.0202184
0.0198731
0.0292919
0.0280011
0.0287928
0.0258286
0.028561
0.0232012
0.028043
0.0158167
0.015688
0.0255297
0.0181158
0.0297036
0.0172679
0.0228231
0.0180382
0.0197525
0.0193586
0.0254763
0.0169422
0.0273775
0.0165569
0.0231878
0.0279136
0.0163441
0.0145832
0.0203949
0.021968
0.0210753
0.0212198
0.0267598
0.0189917
0.0250833
0.0152076
0.0172842
0.0253906
0.020774
0.0148614
0.0177621
0.0192784
0.0180204
0.0194667
0.0157604
0.0186479
0.0137497
0.0209539
0.0233791
0.0233934
0.0271914
0.0135901
0.0116547
0.0128902
0.0174352
0.0216503
0.0198469
0.0254892
0.0263222
0.0233235
0.0232983
0.0113829
0.0142254
0.020577
0.0170807
0.0125772
0.00959256
0.0112799
0.0176717
0.0194199
0.00588399
0.00643756
0.004821
0.00402722
0.00812038
0.00805902
0.018668
0.0183436
0.0190837
0.0198863
0.0201129
0.0220428
0.0164174
0.0168327
0.0226255
0.0226121
0.0150831
0.0127705
0.0190033
0.0111939
0.0137455
0.0144644
0.016558
0.00718241
0.00751119
0.00912549
0.0119399
0.0122222
0.0146287
0.014225
0.0161913
0.017352
0.0367298
0.0212078
0.0246438
0.0229401
0.0175562
0.0153307
0.0308258
0.0225578
0.0276021
0.0110871
0.018834
0.0368926
0.0236303
0.0186387
0.0139768
0.0126121
0.0374054
0.0292747
0.016384
0.00882174
0.0162422
0.0370138
0.0140731
0.031687
0.0377882
0.0179537
0.0159687
0.0358806
0.031617
0.0162099
0.0188525
0.0161128
0.0120779
0.0186535
0.0115143
0.0144665
0.0130902
0.030565
0.0186864
0.0280122
0.00865122
0.00581579
0.00736725
0.01999
0.035475
0.0366209
0.00937619
0.011233
0.0113108
0.0294011
0.0309691
0.020342
0.0204923
0.0371988
0.0166757
0.014133
0.0122026
0.00959204
0.0181283
0.0123812
0.0185631
0.0144282
0.0122898
0.0131583
0.00755098
0.00717974
0.0295834
0.0364748
0.013199
0.0376786
0.0120761
0.0095763
0.0132194
0.0125043
0.0151775
0.0102301
0.0359622
0.0133326
0.0166782
0.0170691
0.00551923
0.0150217
0.0153556
0.0132195
0.010512
0.0397097
0.0140402
0.0367444
0.0128957
0.0158455
0.0405459
0.0148191
0.0118983
0.0106981
0.0183099
0.0361922
0.0410431
0.0137356
0.0129323
0.00902579
0.0367881
0.039802
0.0139648
0.0400314
0.0360577
0.010945
0.0365043
0.0402252
0.0191973
0.0364394
0.0198869
0.0160832
0.0154365
0.0098997
0.0360405
0.0116028
0.0114793
0.0407
)
;

boundaryField
{
    patch0
    {
        type            kqRWallFunction;
        value           nonuniform List<scalar> 
4010
(
0.0271396
0.0271396
0.02837
0.02837
0.0362512
0.0362512
0.0377559
0.0377559
0.0300648
0.0300648
0.038837
0.038837
0.0393224
0.0393224
0.0400918
0.0400918
0.0401052
0.0401052
0.0347858
0.0347858
0.0406223
0.0406223
0.0405209
0.0405209
0.0241484
0.0241484
0.0410473
0.0410473
0.0409229
0.0409229
0.0407649
0.0407649
0.0267413
0.0267413
0.0409475
0.0409475
0.0246647
0.0246647
0.0411974
0.0411974
0.018726
0.018726
0.0396475
0.0396475
0.0279348
0.0279348
0.0410474
0.0410474
0.0396968
0.0396968
0.0428443
0.0428443
0.0432504
0.0432504
0.0308485
0.0308485
0.0323564
0.0323564
0.0321622
0.0321622
0.0296318
0.0296318
0.0404375
0.0404375
0.0277323
0.0277323
0.0267013
0.0267013
0.0315368
0.0315368
0.0296203
0.0296203
0.0415562
0.0415562
0.0324717
0.0324717
0.0306474
0.0306474
0.0290009
0.0290009
0.0423939
0.0423939
0.0208311
0.0208311
0.0421462
0.0421462
0.0257573
0.0257573
0.0362197
0.0362197
0.0337312
0.0337312
0.0242806
0.0242806
0.0377149
0.0377149
0.0137782
0.0137782
0.0147567
0.0147567
0.0205934
0.0205934
0.0234802
0.0234802
0.039029
0.039029
0.0220102
0.0220102
0.0344177
0.0344177
0.0347075
0.0347075
0.023966
0.023966
0.0362826
0.0362826
0.0308113
0.0308113
0.0422999
0.0422999
0.0245231
0.0245231
0.0409098
0.0409098
0.0221872
0.0221872
0.0292188
0.0292188
0.0241885
0.0241885
0.0376986
0.0376986
0.0411637
0.0411637
0.0315932
0.0315932
0.0335353
0.0335353
0.019568
0.019568
0.0159988
0.0159988
0.0408213
0.0408213
0.0288965
0.0288965
0.0339033
0.0339033
0.0337924
0.0337924
0.0298872
0.0298872
0.0383506
0.0383506
0.0350274
0.0350274
0.0376666
0.0376666
0.0215996
0.0215996
0.0389949
0.0389949
0.0433963
0.0433963
0.0350621
0.0350621
0.0197514
0.0197514
0.0268837
0.0268837
0.0330852
0.0330852
0.0315906
0.0315906
0.0412644
0.0412644
0.0129582
0.0129582
0.0168247
0.0168247
0.0416224
0.0416224
0.0432467
0.0432467
0.035149
0.035149
0.0364677
0.0364677
0.0198151
0.0198151
0.0248755
0.0248755
0.038544
0.038544
0.039361
0.039361
0.0426291
0.0426291
0.0245715
0.0245715
0.0360329
0.0360329
0.0209876
0.0209876
0.0425205
0.0425205
0.0431164
0.0431164
0.0370751
0.0370751
0.0365481
0.0365481
0.0366938
0.0366938
0.0368631
0.0368631
0.0419021
0.0419021
0.036247
0.036247
0.0388477
0.0388477
0.0351274
0.0351274
0.0316249
0.0316249
0.0343356
0.0343356
0.0375752
0.0375752
0.0172943
0.0172943
0.0366388
0.0366388
0.0407873
0.0407873
0.0356644
0.0356644
0.0381172
0.0381172
0.0240778
0.0240778
0.0159054
0.0159054
0.0162138
0.0162138
0.0160578
0.0160578
0.0409869
0.0409869
0.0385585
0.0385585
0.0317922
0.0317922
0.0348531
0.0348531
0.0361265
0.0361265
0.0220259
0.0220259
0.0387982
0.0387982
0.0367602
0.0367602
0.0277512
0.0277512
0.0352197
0.0352197
0.0246463
0.0246463
0.0378506
0.0378506
0.033912
0.033912
0.034879
0.034879
0.0411743
0.0411743
0.0319052
0.0319052
0.0352453
0.0352453
0.0409569
0.0409569
0.0174121
0.0174121
0.0174121
0.0243889
0.0243889
0.0243889
0.0385453
0.0385453
0.0272566
0.0272566
0.0375992
0.0375992
0.0209144
0.0209144
0.0407664
0.0407664
0.0352777
0.0352777
0.0338626
0.0338626
0.0159677
0.0159677
0.0159677
0.0288887
0.0288887
0.0386855
0.0386855
0.039082
0.039082
0.0391616
0.0391616
0.0158366
0.0158366
0.0341366
0.0341366
0.0392081
0.0392081
0.0314993
0.0314993
0.0339466
0.0339466
0.0314504
0.0314504
0.0389754
0.0389754
0.0164999
0.0164999
0.03145
0.03145
0.03849
0.03849
0.0399837
0.0399837
0.0155156
0.0155156
0.0379713
0.0379713
0.0375411
0.0375411
0.030978
0.030978
0.0402234
0.0402234
0.0361723
0.0361723
0.0428296
0.0428296
0.0356383
0.0356383
0.0364325
0.0364325
0.0326695
0.0326695
0.0150561
0.0150561
0.0286939
0.0286939
0.0403791
0.0403791
0.0405075
0.0405075
0.0407886
0.0407886
0.03614
0.03614
0.0404239
0.0404239
0.0138244
0.0138244
0.0257371
0.0257371
0.0312739
0.0312739
0.0417585
0.0417585
0.0384236
0.0384236
0.0352806
0.0352806
0.0365049
0.0365049
0.0403533
0.0403533
0.03912
0.03912
0.04051
0.04051
0.0411252
0.0411252
0.016623
0.016623
0.016623
0.0425908
0.0425908
0.0375874
0.0375874
0.0388169
0.0388169
0.0369952
0.0369952
0.0227084
0.0227084
0.0276485
0.0276485
0.0391427
0.0391427
0.0409946
0.0409946
0.0310607
0.0310607
0.0410015
0.0410015
0.0413022
0.0413022
0.0297883
0.0297883
0.0236356
0.0236356
0.021894
0.021894
0.021894
0.0172353
0.0172353
0.0374458
0.0374458
0.0414451
0.0414451
0.0414632
0.0414632
0.0420674
0.0420674
0.0361068
0.0361068
0.0398491
0.0398491
0.0374549
0.0374549
0.0412747
0.0412747
0.0341802
0.0341802
0.0388092
0.0388092
0.0353808
0.0353808
0.039878
0.039878
0.0415674
0.0415674
0.0409443
0.0409443
0.04281
0.04281
0.0395597
0.0395597
0.0372939
0.0372939
0.041967
0.041967
0.0380747
0.0380747
0.0307784
0.0307784
0.0418971
0.0418971
0.0396473
0.0396473
0.0194922
0.0194922
0.0430487
0.0430487
0.0262285
0.0262285
0.0262285
0.0412892
0.0412892
0.0417507
0.0417507
0.0403789
0.0403789
0.0173486
0.0173486
0.0173486
0.0408671
0.0408671
0.0407065
0.0407065
0.041038
0.041038
0.0316789
0.0316789
0.031911
0.031911
0.0233063
0.0233063
0.0414289
0.0414289
0.0376712
0.0376712
0.0359205
0.0359205
0.0364847
0.0364847
0.0248316
0.0248316
0.0180564
0.0180564
0.0422202
0.0422202
0.038841
0.038841
0.0382707
0.0382707
0.0414218
0.0414218
0.0424984
0.0424984
0.0407787
0.0407787
0.0393158
0.0393158
0.0416762
0.0416762
0.040329
0.040329
0.0410156
0.0410156
0.0427148
0.0427148
0.0364911
0.0364911
0.0402744
0.0402744
0.0326106
0.0326106
0.0194939
0.0194939
0.0352227
0.0352227
0.0343735
0.0343735
0.0191052
0.0191052
0.0374303
0.0374303
0.0334595
0.0334595
0.0325729
0.0325729
0.0419584
0.0419584
0.0418584
0.0418584
0.0388664
0.0388664
0.041341
0.041341
0.0431926
0.0431926
0.0390895
0.0390895
0.0391616
0.0391616
0.0208782
0.0208782
0.0182034
0.0182034
0.0182034
0.0417546
0.0417546
0.0424742
0.0424742
0.0227482
0.0227482
0.0350265
0.0350265
0.0394828
0.0394828
0.0198533
0.0198533
0.0419766
0.0419766
0.0412191
0.0412191
0.0414222
0.0414222
0.0306043
0.0306043
0.0431589
0.0431589
0.0411952
0.0411952
0.0154746
0.0154746
0.0309315
0.0309315
0.0412587
0.0412587
0.0313999
0.0313999
0.0342932
0.0342932
0.0412501
0.0412501
0.0203442
0.0203442
0.0203442
0.0401585
0.0401585
0.0408296
0.0408296
0.0391253
0.0391253
0.0416595
0.0416595
0.0428425
0.0428425
0.0198225
0.0198225
0.0405179
0.0405179
0.0412584
0.0412584
0.0366987
0.0366987
0.0264573
0.0264573
0.034647
0.034647
0.0426558
0.0426558
0.0381477
0.0381477
0.0387783
0.0387783
0.0221764
0.0221764
0.0407042
0.0407042
0.0418809
0.0418809
0.0418595
0.0418595
0.0414858
0.0414858
0.0313844
0.0313844
0.0383194
0.0383194
0.0405912
0.0405912
0.0323076
0.0323076
0.0433058
0.0433058
0.0378753
0.0378753
0.0419378
0.0419378
0.0422176
0.0422176
0.037923
0.037923
0.0399412
0.0399412
0.0399119
0.0399119
0.0412378
0.0412378
0.0377346
0.0377346
0.0415458
0.0415458
0.0328638
0.0328638
0.0432177
0.0432177
0.0419968
0.0419968
0.0420437
0.0420437
0.0426733
0.0426733
0.0412701
0.0412701
0.0371529
0.0371529
0.0335979
0.0335979
0.0390312
0.0390312
0.0331156
0.0331156
0.0410104
0.0410104
0.0409795
0.0409795
0.0293319
0.0293319
0.0412679
0.0412679
0.0340172
0.0340172
0.0429154
0.0429154
0.0415182
0.0415182
0.0225089
0.0225089
0.0279263
0.0279263
0.040975
0.040975
0.0264923
0.0264923
0.0358004
0.0358004
0.0140389
0.0140389
0.0420557
0.0420557
0.0405426
0.0405426
0.0222198
0.0222198
0.042949
0.042949
0.0410893
0.0410893
0.0407461
0.0407461
0.041586
0.041586
0.0409721
0.0409721
0.0414781
0.0414781
0.038601
0.038601
0.0375786
0.0375786
0.0427918
0.0427918
0.0423471
0.0423471
0.0402086
0.0402086
0.0417879
0.0417879
0.0415496
0.0415496
0.0407838
0.0407838
0.0430897
0.0430897
0.0113212
0.0113212
0.040981
0.040981
0.0408504
0.0408504
0.0396937
0.0396937
0.0412289
0.0412289
0.0411293
0.0411293
0.0348454
0.0348454
0.0422112
0.0422112
0.0422971
0.0422971
0.0393238
0.0393238
0.0399375
0.0399375
0.0320296
0.0320296
0.0413556
0.0413556
0.0428824
0.0428824
0.0418939
0.0418939
0.0289298
0.0289298
0.037719
0.037719
0.042792
0.042792
0.0411708
0.0411708
0.0423739
0.0423739
0.0159551
0.0159551
0.0159551
0.0420195
0.0420195
0.0392733
0.0392733
0.0398636
0.0398636
0.0409027
0.0409027
0.0289527
0.0289527
0.0330972
0.0330972
0.0328489
0.0328489
0.0354801
0.0354801
0.0133138
0.0133138
0.0133138
0.0415254
0.0415254
0.0394198
0.0394198
0.0412385
0.0412385
0.0407513
0.0407513
0.0415443
0.0415443
0.0428937
0.0428937
0.0373767
0.0373767
0.0419462
0.0419462
0.0419234
0.0419234
0.0426465
0.0426465
0.0387777
0.0387777
0.0383225
0.0383225
0.0409469
0.0409469
0.034464
0.034464
0.0388169
0.0388169
0.0408949
0.0408949
0.0382649
0.0382649
0.0390495
0.0390495
0.0293217
0.0293217
0.0403906
0.0403906
0.040348
0.040348
0.0386655
0.0386655
0.0286924
0.0286924
0.038427
0.038427
0.0424363
0.0424363
0.0412999
0.0412999
0.0377499
0.0377499
0.0420861
0.0420861
0.0366444
0.0366444
0.0425275
0.0425275
0.0424984
0.0424984
0.0400879
0.0400879
0.0165959
0.0165959
0.0422229
0.0422229
0.0399538
0.0399538
0.039956
0.039956
0.0424348
0.0424348
0.0425366
0.0425366
0.0270435
0.0270435
0.0409844
0.0409844
0.0192889
0.0192889
0.0192889
0.042438
0.042438
0.0320751
0.0320751
0.0429654
0.0429654
0.0408406
0.0408406
0.0407864
0.0407864
0.0381166
0.0381166
0.0427726
0.0427726
0.0402023
0.0402023
0.0421073
0.0421073
0.0432551
0.0432551
0.0395049
0.0395049
0.0408749
0.0408749
0.0363093
0.0363093
0.0410299
0.0410299
0.0364324
0.0364324
0.0390546
0.0390546
0.0226644
0.0226644
0.035821
0.035821
0.0342321
0.0342321
0.0407514
0.0407514
0.040641
0.040641
0.0426839
0.0426839
0.042149
0.042149
0.0368848
0.0368848
0.0410765
0.0410765
0.0374043
0.0374043
0.0298906
0.0298906
0.0392663
0.0392663
0.0374938
0.0374938
0.0355412
0.0355412
0.0272176
0.0272176
0.0419149
0.0419149
0.0409063
0.0409063
0.0409606
0.0409606
0.0423127
0.0423127
0.0424482
0.0424482
0.0404372
0.0404372
0.0406027
0.0406027
0.0387513
0.0387513
0.0406544
0.0406544
0.0419844
0.0419844
0.0407188
0.0407188
0.0412439
0.0412439
0.0391541
0.0391541
0.0180906
0.0180906
0.0414301
0.0414301
0.0370667
0.0370667
0.039146
0.039146
0.0404364
0.0404364
0.0386234
0.0386234
0.0409241
0.0409241
0.0404782
0.0404782
0.0418907
0.0418907
0.0324423
0.0324423
0.0402607
0.0402607
0.0408237
0.0408237
0.0392068
0.0392068
0.0396824
0.0396824
0.0288465
0.0288465
0.0387137
0.0387137
0.0408173