/*--------------------------------*- C++ -*----------------------------------*\
  =========                 |
  \\      /  F ield         | OpenFOAM: The Open Source CFD Toolbox
   \\    /   O peration     | Website:  https://openfoam.org
    \\  /    A nd           | Version:  8
     \\/     M anipulation  |
\*---------------------------------------------------------------------------*/
FoamFile
{
    version     2.0;
    format      ascii;
    class       volScalarField;
    location    "0.55";
    object      nut;
}
// * * * * * * * * * * * * * * * * * * * * * * * * * * * * * * * * * * * * * //

dimensions      [0 2 -1 0 0 0 0];

internalField   nonuniform List<scalar> 
1924
(
0.00183901
0.0018793
0.00213211
0.00217241
0.00193538
0.00220318
0.0022156
0.002238
0.00223793
0.00208837
0.00225244
0.00224965
0.0017669
0.00226448
0.00226072
0.00225824
0.0018547
0.00226179
0.00175314
0.00226881
0.00154001
0.00224431
0.00190448
0.00226483
0.00224496
0.00232517
0.00233159
0.0019614
0.00200393
0.00199967
0.00195992
0.00226485
0.00184693
0.00186109
0.00198381
0.00196128
0.00229305
0.00200898
0.00195277
0.00193687
0.00231443
0.00163646
0.00231028
0.00183301
0.00212111
0.00204623
0.00173728
0.00216694
0.00130658
0.00136322
0.00158677
0.00172723
0.0022282
0.00161578
0.00207192
0.00208765
0.00172678
0.0021232
0.00195506
0.0022956
0.00178559
0.00226058
0.00169951
0.00190989
0.0016931
0.00216809
0.00226737
0.00201966
0.00203747
0.00156413
0.00143004
0.00225867
0.0018969
0.00205229
0.00204892
0.0019495
0.00218599
0.00208635
0.00216478
0.00166449
0.00220606
0.00233161
0.00208637
0.00157108
0.00182707
0.00206119
0.00197932
0.00226867
0.00127091
0.00144971
0.00228086
0.00232718
0.00208815
0.00213121
0.00156089
0.00173938
0.00219266
0.00221663
0.00230675
0.00178038
0.00212006
0.00161368
0.00230431
0.00232063
0.00215045
0.00213247
0.00213418
0.00214881
0.00228368
0.00212148
0.00220101
0.00208667
0.00198609
0.00206387
0.00216186
0.00146923
0.00213984
0.00226066
0.00213047
0.00217852
0.00173622
0.000536262
0.00143729
0.0014084
0.00226237
0.00219354
0.00200814
0.00208103
0.00211552
0.000584194
0.00219913
0.00213841
0.000215808
0.0020903
0.0017561
0.0021696
0.00205345
0.00207992
0.00226875
0.00199481
0.00209922
0.00226182
0.000133835
0.000160357
0.00219409
0.00183981
0.00217071
0.00163688
0.00225373
0.00211908
0.00205098
0.000268611
0.00191694
0.00219551
0.00220913
0.00221178
0.000535178
0.00206375
0.00221135
0.000229853
0.00205213
0.00198685
0.00220488
0.000546163
0.0019818
0.00218862
0.00223309
0.000401523
0.00217409
0.00215895
0.00195831
0.00224178
0.00212156
0.00231235
0.00210994
0.00214824
0.00201414
0.000325026
0.00192957
0.00224561
0.00225602
0.00226043
0.00211955
0.0022465
0.00130799
0.0017851
0.0019913
0.00228792
0.0021879
0.00209327
0.00214601
0.00224529
0.00220883
0.00224954
0.00226594
0.000274071
0.00230903
0.00218057
0.00221206
0.00216738
0.000368824
0.00185597
0.00220652
0.00226298
0.00196542
0.0022691
0.00227155
0.00194165
0.00173952
0.000145381
0.000558239
0.00215538
0.00227686
0.0022759
0.00229669
0.00211892
0.00222909
0.00217275
0.00227081
0.00206067
0.00220657
0.00209568
0.00222854
0.00227963
0.00226158
0.00231535
0.00222188
0.00215583
0.00229004
0.00219798
0.000319808
0.00228798
0.00223468
0.000322363
0.00232044
0.000158632
0.00227294
0.00228397
0.00224379
0.000280006
0.00226233
0.00226445
0.00226569
0.00200465
0.000323253
0.00171359
0.00227507
0.0021713
0.00211305
0.0021314
0.0017451
0.000489297
0.00229721
0.00219733
0.00218345
0.00227511
0.00231836
0.00226994
0.00222204
0.00228192
0.00224681
0.00226242
0.00230832
0.00213025
0.00226181
0.0020123
0.00158216
0.00209313
0.0020715
0.000337425
0.00218239
0.00203925
0.0020125
0.0022996
0.00228515
0.00220253
0.00227269
0.00232453
0.00220607
0.00222516
0.000405966
0.000204417
0.00228474
0.00230402
0.00168403
0.00208576
0.00221981
0.000500839
0.00229026
0.00227863
0.00227457
0.00194891
0.00232294
0.00227051
0.00139353
0.0019637
0.00226917
0.00199728
0.00206446
0.0022706
0.000290762
0.00223771
0.00226035
0.00221064
0.0022816
0.00232057
0.00160568
0.00225111
0.00228316
0.00213537
0.00182482
0.00210083
0.00230903
0.0022013
0.00219882
0.00169678
0.00225852
0.00228767
0.00228695
0.00227793
0.00197333
0.00220702
0.00225109
0.00200375
0.00233123
0.00217356
0.00229562
0.00230604
0.0021778
0.0022331
0.00224582
0.00226819
0.00218963
0.00227859
0.00202002
0.00232455
0.00228789
0.00229209
0.00230942
0.00227044
0.00215221
0.00204022
0.00222557
0.00205408
0.0022631
0.00226477
0.000291368
0.00226879
0.00208047
0.00232395
0.00229661
0.000253752
0.000431375
0.00226484
0.00182536
0.00211154
0.00131837
0.00229263
0.00226735
0.00167088
0.00231741
0.00226608
0.0022589
0.00227562
0.00228225
0.00227637
0.00221319
0.00218894
0.00231274
0.00230048
0.00224236
0.0022871
0.00229267
0.0022595
0.00232561
0.000271574
0.0022631
0.00226017
0.00224445
0.0022684
0.00226717
0.00208235
0.00230357
0.00229986
0.00223261
0.00223411
0.00199378
0.0022688
0.00232376
0.00228797
0.000385778
0.0021875
0.00231644
0.00226372
0.00230115
0.000106446
0.00230785
0.00223207
0.00223099
0.00226327
0.00189718
0.00202812
0.00204841
0.00210544
0.000126484
0.00227319
0.00221849
0.00226571
0.00227294
0.00229653
0.00231554
0.00217857
0.00228967
0.00228871
0.00230897
0.00220216
0.00218682
0.00226294
0.0020994
0.00220106
0.00226279
0.00220787
0.00220792
0.00192747
0.00226499
0.00224751
0.00219571
0.00188512
0.00220658
0.0023016
0.00226444
0.00217028
0.00229031
0.00215692
0.00230542
0.00230704
0.00223986
0.00145117
0.00229702
0.00225179
0.00224982
0.00231405
0.00230666
0.00183941
0.00225941
0.000116264
0.00230361
0.00199563
0.00232179
0.00225415
0.00225972
0.0021982
0.00231241
0.00224066
0.00230771
0.00232718
0.00222156
0.00226102
0.00214728
0.00226277
0.00213132
0.00222398
0.00172098
0.00213354
0.00209177
0.00224996
0.002249
0.0023102
0.00229498
0.00214056
0.00228351
0.00217862
0.00192479
0.00221443
0.00218689
0.00210457
0.00183858
0.00228824
0.00225707
0.00226305
0.00229903
0.00230335
0.00224341
0.0022474
0.00221494
0.00227227
0.00229474
0.00225697
0.00226712
0.00221026
0.00152782
0.0022737
0.00216877
0.00221047
0.00224991
0.00219549
0.00225841
0.00224312
0.00229504
0.00200523
0.00224574
0.00226015
0.00223239
0.00224194
0.00191816
0.00220138
0.00225891
0.00229255
0.00219727
0.0022235
0.00204567
0.00218319
0.00223299
0.00231701
0.00223241
0.00222929
0.00223255
0.00233012
0.0022995
0.00226123
0.00214608
0.00225789
0.00214952
0.00221703
0.00231655
0.00232827
0.00192885
0.00179747
0.00228532
0.00230173
0.00212638
0.00228395
0.00218934
0.00204735
0.0020771
0.00223138
0.00230493
0.00220125
0.00180386
0.0022604
0.00221257
0.00199617
0.00167843
0.00201155
0.00219783
0.00225439
0.00186152
0.00188217
0.00224165
0.00223797
0.00226076
0.00222223
0.00226109
0.00216567
0.00227822
0.00207753
0.00187846
0.00163094
0.00194722
0.00181506
0.00224995
0.00213565
0.00208591
0.00221709
0.00224549
0.00209871
0.00212669
0.00221679
0.00188247
0.0022056
0.00219024
0.00223541
0.00227597
0.00221578
0.00193272
0.00221773
0.00196444
0.00200087
0.00222487
0.00211436
0.00222635
0.00224881
0.00229637
0.00221356
0.00174751
0.00175532
0.00224668
0.00206225
0.00216222
0.00201256
0.00226959
0.00215579
0.000380483
0.00168692
0.00167268
0.00221958
0.00221958
0.00217893
0.00222986
0.00211349
0.00167756
0.00224813
0.00230048
0.00182899
0.00218418
0.00227458
0.00232846
0.0020681
0.00212184
0.00204415
0.00226365
0.00225953
0.0020155
0.00220773
0.00221973
0.0022396
0.00231895
0.00211246
0.00179926
0.00193224
0.00219629
0.0021449
0.00222718
0.00223926
0.0022986
0.00189213
0.00187069
0.00224289
0.00232009
0.00207267
0.00225366
0.00224462
0.00217446
0.00209292
0.00217474
0.00176417
0.00224781
0.00186906
0.00222366
0.00219129
0.002207
0.00220423
0.00219953
0.0022573
0.00220418
0.00225466
0.00223205
0.00224962
0.00221847
0.00222214
0.0021172
0.00220361
0.00205055
0.00231384
0.00192648
0.00220769
0.00209038
0.0020339
0.00225567
0.00209587
0.00212378
0.00176497
0.00189671
0.0021674
0.00221105
0.00181033
0.00224735
0.00224929
0.00214525
0.00219136
0.00221058
0.002091
0.00155429
0.00221904
0.00225435
0.00215617
0.0022947
0.00225613
0.00170522
0.00201228
0.00222044
0.00222437
0.00223053
0.00222278
0.00224255
0.0022976
0.00221771
0.001895
0.0021929
0.00183402
0.00198475
0.00228462
0.00222815
0.00223111
0.00210224
0.00224181
0.0020482
0.00194538
0.00220357
0.00221993
0.00210961
0.00206326
0.00221688
0.00198018
0.00174488
0.0022128
0.00220023
0.00223246
0.00218927
0.00216067
0.00213195
0.00175383
0.00220174
0.00190852
0.00223674
0.00231764
0.0022029
0.00207696
0.00224155
0.00156678
0.00190523
0.0022385
0.00205981
0.00192744
0.00225306
0.000276667
0.000126598
0.00182967
0.00209575
0.00216552
0.00220683
0.00208448
0.00193986
0.00221299
0.0022261
0.00223512
0.00222109
0.00220416
0.00223309
0.00206147
0.0017402
0.00221373
0.00208378
0.000276213
0.00224127
0.000399859
0.002173
0.00198
0.00215142
0.00215932
0.00222436
0.00220824
0.00229037
0.00182983
0.00189954
0.00231355
0.00174138
0.00180354
0.00190065
0.00223622
0.00177619
0.00221823
0.00224324
0.00212064
0.00221886
0.00203784
0.00221313
0.00218516
0.00184085
0.00220455
0.00224415
0.00220686
0.0019825
0.00220593
0.00203545
0.00218857
0.00216374
0.00221316
0.00189664
0.00220188
0.00204699
0.00196815
0.00228376
0.00211439
0.00227591
0.00177454
0.00225465
0.00220248
0.00221875
0.00198872
0.00206507
0.00208781
0.00221616
0.00220647
0.00219511
0.00210161
0.00218531
0.00154585
0.00220135
0.00210184
0.00166662
0.00212462
0.00221606
0.00169616
0.00199498
0.00225006
0.00178196
0.00224184
0.00221324
0.00217482
0.00177931
0.00215843
0.00200072
0.000293453
0.00211971
0.0019739
0.00223438
0.00178397
0.00221288
0.00214728
0.00206819
0.00230373
0.00223191
0.00183044
0.0022246
0.00215572
0.00218462
0.00222828
0.00221448
0.00201213
0.00224849
0.00201971
0.00213112
0.00219324
0.00220079
0.00219206
0.00192463
0.00223437
0.00212271
0.000112486
0.00224084
0.000395127
0.00219412
0.00219576
0.00137568
0.00208824
0.00219572
0.00219109
0.00223841
0.00209882
0.00227924
0.00222096
0.00190405
0.00195276
0.00224657
0.00220781
0.00207714
0.00214358
0.00179488
0.00178354
0.00223122
0.00223149
0.00221001
0.0017146
0.00205023
0.00221441
0.0018074
0.00219312
0.00195049
0.0020515
0.00211077
0.00210978
0.0020306
0.00227988
0.00215256
0.00169036
0.0019818
0.00203537
0.000297093
0.00220067
0.00167467
0.00212454
0.00223829
0.00172145
0.00221028
0.0021967
0.00221493
0.00225246
0.00222273
0.00222701
0.0021603
0.00203835
0.000340224
0.00222158
0.00218174
0.00217839
0.00214847
0.00224345
0.00206056
0.00225014
0.00200647
0.0017218
0.00213537
0.00184225
0.0021825
0.00218842
0.00220376
0.00185863
0.00218994
0.00220406
0.00218631
0.00165713
0.00214703
0.000134213
0.00184158
0.00221691
0.00189666
0.00218002
0.0021467
0.00180293
0.00173436
0.00224824
0.0021707
0.00193639
0.00211624
0.00203557
0.00200665
0.00229988
0.00227315
0.00219663
0.00215242
0.00224311
0.00217982
0.00209584
0.0022156
0.00200781
0.00223976
0.00211107
0.00220114
0.00221798
0.00183108
0.00017507
0.00211043
0.00154321
0.000437889
0.00221043
0.00216315
0.00221565
0.00195726
0.00224673
0.00206341
0.00217785
0.000204444
0.00212218
0.00223148
0.000182641
0.00203912
0.00011907
0.00199027
0.00224447
0.00197716
0.00204878
0.00213363
0.00228354
0.00185744
0.00221383
0.00222054
0.0021783
0.00219059
0.00187613
0.00185978
0.00214436
0.00174537
0.00219243
0.00224305
0.00160794
0.00221488
0.00220079
0.00222321
0.00206967
0.00224632
0.00219999
0.00203353
0.00215568
0.00218575
0.00221371
0.00217571
0.00180833
0.00169033
0.00210517
0.00221098
0.00221378
0.00202415
0.00216657
0.0021191
0.00177275
0.00208488
0.00223417
0.00223769
0.00202646
0.00218754
0.00192353
0.00207311
0.00224269
0.00212943
0.00205555
0.00224523
0.00224927
0.00213698
0.00184279
0.00217663
0.00195376
0.00224765
0.00221525
0.00213503
0.00210386
0.00221563
0.00221053
0.00214022
0.00218674
0.00216594
0.00221202
0.00216461
0.000173319
0.00180414
0.00188428
0.00221218
0.00215105
0.00220423
0.00212162
0.00195349
0.00183196
0.00204552
0.00210129
0.00222646
0.00187746
0.00188954
0.00216192
0.00225757
0.00199245
0.00218588
0.00199911
0.00224495
0.00227464
0.00221669
0.00224624
0.00219955
0.00204744
0.00220588
0.00220491
0.0022109
0.0021723
0.00218575
0.00199465
0.00218625
0.00218957
0.00228083
0.00219803
0.00218633
0.00220622
0.00208381
0.00221225
0.00201206
0.00210431
0.00164982
0.00201857
0.00183373
0.00223605
0.00219698
0.00203269
0.00191793
0.00224788
0.00193731
0.00218131
0.00212027
0.00221324
0.00219644
0.000449986
0.00224025
0.00213322
0.00219426
0.000359721
0.00221009
0.00214421
0.00151622
0.001961
0.00205788
0.00190191
0.00221498
0.00224676
0.00221452
0.00215364
0.00223492
0.000359681
0.000358674
0.00219329
0.00220969
0.00223635
0.00219267
0.00219677
0.00197134
0.00208835
0.00216069
0.00201741
0.000360791
0.00220792
0.00158332
0.00197943
0.00221031
0.00222222
0.00220541
0.00199452
0.00220938
0.000122646
0.00011839
0.00228582
0.00201525
0.00218852
0.00211888
0.00210788
0.00220343
0.00221253
0.0019732
0.00224197
0.0021179
0.00208811
0.00209851
0.00219122
0.00212331
0.000349902
0.00185778
0.00223592
0.00219493
0.00224163
0.00213595
0.00206428
0.00220012
0.00208631
0.00203777
0.00193307
0.00214653
0.0022381
0.00015361
0.00191212
0.00193573
0.00216501
0.000364214
0.0021962
0.00215361
0.000360987
0.000252595
0.00219005
0.0020278
0.00224108
0.00222909
0.00221509
0.00214402
0.00201002
0.00218017
0.00200123
0.00220682
0.00221293
0.000199347
0.000370875
0.00219146
0.000289334
0.00196007
0.00220718
0.0019135
0.00215807
0.00214469
0.00203649
0.00199081
0.00197526
0.00228254
0.002225
0.00218693
0.00169101
0.0021156
0.00221303
0.00219867
0.00194993
0.0022389
0.00202605
0.00220219
0.00200129
0.000460658
0.00216439
0.00220798
0.00220373
0.00037738
0.00202348
0.00220511
0.00162766
0.000363768
0.00221537
0.0018158
0.0022002
0.00204041
0.00188541
0.00218347
0.00222576
0.00218602
0.00197454
0.00216657
0.00205243
0.00219364
0.00187579
0.00187383
0.00220985
0.00205997
0.00217591
0.00198354
0.00223591
0.00206703
0.00189516
0.00221492
0.00215775
0.00206641
9.45782e-05
9.95681e-05
0.00220686
0.00218892
0.00206226
0.00199492
0.0022259
0.00198566
0.00190126
0.00146207
0.000382953
0.00206571
0.00215794
0.00220926
0.0020947
0.00220679
0.00219981
0.00220742
0.00194431
0.00216886
0.001973
0.0021719
0.00219663
0.00215493
0.0019526
0.00194738
0.0022273
0.00206022
0.002183
0.00199846
0.000179919
0.00220291
0.00201982
0.00219772
0.00203631
0.00216436
0.000385394
0.00202255
0.00178069
0.000481478
0.00218185
0.00218122
0.00204795
0.000218535
0.00180574
0.00215152
0.00182561
0.00186395
0.00205156
0.00194468
0.00209536
0.00219642
0.00201496
0.00194878
0.00181907
0.0019122
0.00218453
0.00222571
0.00219302
0.00190402
0.0019471
0.00166539
0.00214645
0.0021473
0.000469179
0.00218321
0.000387526
0.00219636
0.00220784
0.00214575
0.00217993
0.00213929
0.00204952
0.00216679
0.00180439
0.00215621
0.00184062
0.00215018
0.0022014
0.00219425
0.00205283
0.000169677
0.00219903
0.00214516
0.00177712
0.00219793
0.00212329
0.00188293
0.00214941
0.000171055
0.00191506
0.0021465
0.00215886
0.000172283
0.00142292
0.00213887
0.00203923
0.00214219
0.00176618
0.0021361
0.00214572
0.00033533
0.00213567
0.00210706
0.00212027
0.0020424
0.00217602
0.000168786
0.0021316
0.00203954
0.00182767
0.00212794
0.00219973
0.00186946
0.00217527
0.00219256
0.00192264
0.00200024
0.00191276
0.00220432
0.000167959
0.000174583
0.00194365
0.00190881
0.00201467
0.000226692
0.00213841
0.00210413
0.000361389
0.00213138
0.00203974
0.00213314
0.0021235
0.000322669
0.000177946
0.0019982
0.00213519
0.000392084
0.000107561
0.000106213
0.00189632
0.00183468
0.00198695
0.00190319
0.00216816
0.00219123
0.00217751
0.00208981
0.00218649
0.00213674
0.000147725
0.00216283
0.000162609
0.00016613
0.00220398
0.0021231
0.00173452
0.000181766
0.00218047
0.00177758
0.00216384
0.000423293
0.00170104
0.000431032
0.00210933
0.00046955
0.00183956
0.00164815
0.000437549
0.00215557
0.000388034
0.00208804
0.0021261
0.00034718
0.000442368
0.00198457
0.000445382
0.00199497
0.000282333
0.000446634
0.00202954
0.00151342
0.00196958
0.00199258
0.000257807
0.000185118
0.000447128
0.00217897
0.00186562
0.00211319
0.00217716
0.00200696
0.00211987
0.00200366
0.00209232
0.00217713
0.00212806
0.000414793
0.00200921
0.00159755
0.00207055
0.00197199
0.00216254
0.00186877
0.00210649
0.000231394
0.00171179
0.000447435
0.00212681
0.00206894
0.00212568
0.0020216
0.00207079
0.00171338
0.00197243
0.00209481
0.000187875
0.00196817
0.00211382
0.00163234
0.000416469
0.00190276
0.00195739
0.00198987
0.00210364
0.0020762
0.000405927
0.00214291
0.00214389
0.000396827
0.00204899
0.00215963
0.000386191
0.00198051
0.00200889
0.00215957
0.000447615
0.00198003
0.00215389
0.00214016
0.000387395
0.00211117
0.00201149
0.00198414
0.00207671
0.000157014
0.00214336
0.00187751
0.00215204
0.00216967
0.00210838
0.0019678
0.00173792
0.0021624
0.0016249
0.00217028
0.00163687
0.00205126
0.000176151
0.000421951
0.000412577
0.000190145
0.00210101
0.00037878
0.00208728
0.0019581
0.00161873
0.000464401
0.000235176
0.00135242
0.00205791
0.0020105
0.00207146
0.00172146
0.00193624
0.00194006
0.000376221
0.00202644
0.00181969
0.00203422
0.00211236
0.00194626
0.0020834
0.00209494
0.00181018
0.00188574
0.000447409
0.00205659
0.00211296
0.00186215
0.00211012
0.00157477
0.000207666
0.00196622
0.000334322
0.000211645
0.00200136
0.000215318
0.00203124
0.00208032
0.000218466
0.00202897
0.000411159
0.000220844
0.0020044
0.00183397
0.000361807
0.000222357
0.000222971
0.00210763
0.00217609
0.001999
0.00207234
0.0019991
0.00204858
0.00194624
0.00198812
0.000139623
0.000149591
0.000223138
0.00206988
0.00194026
0.00197283
0.0004239
0.00205341
0.000363458
0.00042325
0.00206334
0.00193941
0.000424168
0.000346273
0.00176359
0.00153166
0.000223235
0.000422322
0.00200357
0.000234493
0.00181499
0.00196686
0.00190101
0.00189931
0.00206341
0.00020347
0.000199106
0.0019323
0.00197412
0.000194632
0.00211993
0.000446395
0.00195894
0.00198911
0.000165853
0.000203332
0.000204745
0.000409986
0.00176969
0.00184211
0.00212131
0.00189822
0.00193921
0.00210584
0.00178239
0.00203146
0.00212329
0.00199727
0.000189224
0.00206619
0.00180077
0.00206432
0.000332979
0.00197443
0.0002232
0.00212534
0.001978
0.00014461
0.000320798
0.00190364
0.00200195
0.00185732
0.00182225
0.000203567
0.00186047
0.000154434
0.000447259
0.000390304
0.0018511
0.00207001
0.00203507
0.00198308
0.0019775
0.00177854
0.000418931
0.00202703
0.00018531
0.000189917
0.00186345
0.000181966
0.00191906
0.00038615
0.00190652
0.00203988
0.00197253
0.00202884
0.00189265
0.00193135
0.00146454
0.00206984
0.000222838
0.000172695
0.00191588
0.000208742
0.000229195
0.00201066
0.00177463
0.00181911
0.000208829
0.0019194
0.000203008
0.000408669
0.00206968
0.00204406
0.000209382
0.000383356
0.00198088
0.000209372
0.00210105
0.00172938
0.000137068
0.00180454
0.00191372
0.00179493
0.000388463
0.00194158
0.00200523
0.000163843
0.000160127
0.00201162
0.00143543
0.00191285
0.00194447
0.00185427
0.00193145
0.00172355
0.00185697
0.000207267
0.00185853
0.00198099
0.00192155
0.00193491
0.00183298
0.0017418
0.000333511
0.00013903
0.00167227
0.00200108
0.0017591
0.00170597
0.00209742
0.000392639
0.000202502
0.00192133
0.0018857
0.000384962
0.00194666
0.000444118
0.000221913
0.00166358
0.0017221
0.00184108
0.00190466
0.000186971
0.000184782
0.00196281
0.000379432
0.00039901
0.00037592
0.00159974
0.00169323
0.00173346
0.00185684
0.00185888
0.000295939
0.000124874
0.0019757
0.00158832
0.00179532
0.000413005
0.000204614
0.00191683
0.00187318
0.00188804
0.00179827
0.00189672
0.00170294
0.00187547
0.000365034
0.000181631
0.00179941
0.000389995
0.00193244
0.000190371
0.00168813
0.00019451
0.000406984
0.000201714
0.00178733
0.000188555
0.00185355
0.000373607
0.00171827
0.00186984
0.000185333
0.000351448
0.0016105
0.000434074
0.000425436
0.000213478
0.00183188
0.000214459
0.00177361
0.000178978
0.00147709
0.00178485
0.00161139
0.000176816
0.000193754
0.000403669
0.000390439
0.000403816
0.000364758
0.000197808
0.000170523
0.00161915
0.00171232
0.00171117
0.00185295
0.000169046
0.00015737
0.000331571
0.00148714
0.00164732
0.00157612
0.00179721
0.00181648
0.00170953
0.00172217
0.000154427
0.000346157
0.00161977
0.000189426
0.000325215
0.000141188
0.00030749
0.0014862
0.00155949
0.000110953
0.000232285
0.000100435
9.17194e-05
0.00026186
0.00013001
0.000200556
0.000397663
0.000200198
0.00041361
0.000207984
0.000217453
0.000376425
0.000190604
0.000220191
0.000440149
0.000356712
0.000163618
0.000200281
0.000152842
0.000340214
0.000174507
0.000374096
0.000122145
0.000126394
0.000139212
0.00031885
0.000161694
0.000177583
0.000349718
0.00018492
0.00147301
0.00213685
0.00163042
0.0017576
0.00169579
0.000408856
0.000189754
0.00195927
0.00167587
0.00185102
0.000160471
0.00155642
0.00216637
0.00170019
0.00154112
0.000358226
0.000301242
0.00215719
0.00190743
0.000164924
0.000142917
0.000163866
0.00216854
0.00131998
0.0019859
0.00219373
0.000172107
0.00140632
0.00213702
0.00198321
0.000149372
0.000159029
0.000162918
0.000140944
0.000187694
0.00013763
0.000154253
0.000146737
0.00195003
0.000352547
0.00186497
0.000109413
9.04325e-05
0.000101883
0.00036387
0.00212705
0.00215723
0.000122182
9.40747e-05
9.28912e-05
0.00191165
0.00196271
0.00027882
0.00159567
0.00215121
0.00143767
0.00132287
0.000304165
0.0001299
0.000428273
0.000285607
0.000445642
0.000308317
0.000284692
0.000294416
9.54286e-05
9.31217e-05
0.00191881
0.00215663
0.00127853
0.00216586
0.00016554
0.000231828
0.000213926
0.00124421
0.00138198
0.000247045
0.00214405
0.00128353
0.00146156
0.00144503
9.9704e-05
0.00137548
0.00137713
0.00128047
0.0002656
0.00222688
0.00132278
0.00216658
0.000148761
0.00139794
0.00225124
0.00135062
0.000208426
0.000131258
0.00151577
0.00215129
0.00226543
0.00130296
0.00127038
0.000112606
0.00216743
0.00222933
0.0013173
0.0022363
0.0021456
0.000270487
0.00215666
0.00224161
0.0015445
0.00215347
0.00157277
0.00141386
0.00138465
8.68979e-05
0.00214284
0.000245866
0.000117369
0.00225529
)
;

boundaryField
{
    patch0
    {
        type            nutkWallFunction;
        Cmu             0.09;
        kappa           0.41;
        E               9.8;
        value           nonuniform List<scalar> 
4010
(
0.000173015
0.000173015
0.000218875
0.000218875
0.00024748
0.00024748
0.000252319
0.000252319
0.000224865
0.000224865
0.000255665
0.000255665
0.000257144
0.000257144
0.000259465
0.000259465
0.000259506
0.000259506
0.000242027
0.000242027
0.000261054
0.000261054
0.000260752
0.000260752
0.000163015
0.000163015
0.000262318
0.000262318
0.000228182
0.000228182
0.000236123
0.000236123
0.000170801
0.000170801
0.000262022
0.000262022
0.00016477
0.00016477
0.000262763
0.000262763
0.000145178
0.000145178
0.000252733
0.000252733
0.000174206
0.000174206
0.000262318
0.000262318
0.000221976
0.000221976
0.000262636
0.000262636
0.000268643
0.000268643
0.000218156
0.000218156
0.000234438
0.000234438
0.000234198
0.000234198
0.000178957
0.000178957
0.000218883
0.000218883
0.000218435
0.000218435
0.000170656
0.000170656
0.000220423
0.000220423
0.000178925
0.000178925
0.000263338
0.000263338
0.000234872
0.000234872
0.000228905
0.000228905
0.000177209
0.000177209
0.000265908
0.000265908
0.000152399
0.000152399
0.000262977
0.000262977
0.000167878
0.000167878
0.000247511
0.000247511
0.000239321
0.000239321
0.00016382
0.00016382
0.000252208
0.000252208
0.000126245
0.000126245
0.000130251
0.000130251
0.000151615
0.000151615
0.000160963
0.000160963
0.000245879
0.000245879
0.000156527
0.000156527
0.000241504
0.000241504
0.000239879
0.000239879
0.000162612
0.000162612
0.000247711
0.000247711
0.000229561
0.000229561
0.000252088
0.000252088
0.000164163
0.000164163
0.000251635
0.000251635
0.000156842
0.000156842
0.000223943
0.000223943
0.00017658
0.00017658
0.000252157
0.000252157
0.00026221
0.00026221
0.000184313
0.000184313
0.000238654
0.000238654
0.000148117
0.000148117
0.00013828
0.00013828
0.0002604
0.0002604
0.000222759
0.000222759
0.000240019
0.000240019
0.000239653
0.000239653
0.000182107
0.000182107
0.000254174
0.000254174
0.000243689
0.000243689
0.000252058
0.000252058
0.000154936
0.000154936
0.000256148
0.000256148
0.000269021
0.000269021
0.000243801
0.000243801
0.000148774
0.000148774
0.000172397
0.000172397
0.00018877
0.00018877
0.00023187
0.00023187
0.000251834
0.000251834
0.000122767
0.000122767
0.000142129
0.000142129
0.000263858
0.000263858
0.000267353
0.000267353
0.000243833
0.000243833
0.00024757
0.00024757
0.000153149
0.000153149
0.000206996
0.000206996
0.000254768
0.000254768
0.000257261
0.000257261
0.000249907
0.000249907
0.000166093
0.000166093
0.000246691
0.000246691
0.000153748
0.000153748
0.000249627
0.000249627
0.000252187
0.000252187
0.000249072
0.000249072
0.000248552
0.000248552
0.000248772
0.000248772
0.000248407
0.000248407
0.000261357
0.000261357
0.000241889
0.000241889
0.000255698
0.000255698
0.000243729
0.000243729
0.000231833
0.000231833
0.000241438
0.000241438
0.000251774
0.000251774
0.000140016
0.000140016
0.000248624
0.000248624
0.000247326
0.000247326
0.000194955
0.000194955
0.000253454
0.000253454
0.000162871
0.000162871
5.61678e-05
5.61678e-05
0.000135958
0.000135958
0.000135567
0.000135567
0.000260786
0.000260786
0.000242816
0.000242816
0.000186807
0.000186807
0.000243124
0.000243124
0.000238865
0.000238865
6.06172e-05
6.06172e-05
0.000255547
0.000255547
0.000248979
0.000248979
2.47524e-05
2.47524e-05
0.00024431
0.00024431
0.000165492
0.000165492
0.000240867
0.000240867
0.000239673
0.000239673
0.000242572
0.000242572
0.000262694
0.000262694
0.000228819
0.000228819
0.000244393
0.000244393
0.000260667
0.000260667
1.58852e-05
1.58852e-05
1.58852e-05
1.86959e-05
1.86959e-05
1.86959e-05
0.000252428
0.000252428
0.000172265
0.000172265
0.000242676
0.000242676
0.000156841
0.000156841
0.0002422
0.0002422
0.000194115
0.000194115
0.000239884
0.000239884
2.98953e-05
2.98953e-05
2.98953e-05
0.000180135
0.000180135
0.000252839
0.000252839
0.00025554
0.00025554
0.000244547
0.000244547
5.6057e-05
5.6057e-05
0.000240561
0.000240561
0.000256797
0.000256797
2.70838e-05
2.70838e-05
0.000240161
0.000240161
0.000231577
0.000231577
0.000253713
0.000253713
5.71136e-05
5.71136e-05
0.000201017
0.000201017
0.000242618
0.000242618
0.00024919
0.00024919
4.31486e-05
4.31486e-05
0.000253003
0.000253003
0.000243892
0.000243892
0.000230018
0.000230018
0.000259535
0.000259535
0.000247361
0.000247361
0.000250449
0.000250449
0.000245656
0.000245656
0.000211862
0.000211862
0.000235533
0.000235533
3.46914e-05
3.46914e-05
0.00017635
0.00017635
0.000259789
0.000259789
0.00024305
0.00024305
0.00022991
0.00022991
0.000247258
0.000247258
0.000250632
0.000250632
0.000126438
0.000126438
0.000180075
0.000180075
0.000185094
0.000185094
0.000264362
0.000264362
0.000254398
0.000254398
0.000244507
0.000244507
0.000239391
0.000239391
0.000260251
0.000260251
0.000256529
0.000256529
0.00026072
0.00026072
0.000262509
0.000262509
3.04507e-05
3.04507e-05
3.04507e-05
0.000266835
0.000266835
0.00020761
0.00020761
0.000247855
0.000247855
0.000203069
0.000203069
4.41087e-05
4.41087e-05
0.000216067
0.000216067
0.000248962
0.000248962
0.000262162
0.000262162
0.000230109
0.000230109
0.000245286
0.000245286
0.000263072
0.000263072
0.000181112
0.000181112
0.000165947
0.000165947
1.69279e-05
1.69279e-05
1.69279e-05
5.82585e-05
5.82585e-05
0.000251123
0.000251123
0.000263494
0.000263494
0.000263526
0.000263526
0.000265285
0.000265285
0.000247152
0.000247152
0.000218268
0.000218268
0.000240905
0.000240905
0.000262991
0.000262991
0.000240929
0.000240929
0.000245481
0.000245481
0.000244829
0.000244829
0.000258668
0.000258668
0.000263836
0.000263836
0.000262013
0.000262013
0.000267442
0.000267442
0.000257863
0.000257863
0.000250896
0.000250896
0.000265011
0.000265011
0.00021055
0.00021055
3.52492e-05
3.52492e-05
0.000248455
0.000248455
0.000225031
0.000225031
3.4788e-05
3.4788e-05
0.000268007
0.000268007
1.90029e-05
1.90029e-05
1.90029e-05
0.000263026
0.000263026
0.000264393
0.000264393
0.000260258
0.000260258
3.10521e-05
3.10521e-05
3.10521e-05
0.000261184
0.000261184
0.000247815
0.000247815
0.00026229
0.00026229
0.000187007
0.000187007
3.67874e-05
3.67874e-05
0.000164913
0.000164913
0.000263446
0.000263446
0.000252072
0.000252072
0.000246559
0.000246559
0.000248352
0.000248352
0.000185904
0.000185904
5.16649e-05
5.16649e-05
0.000265768
0.000265768
0.000255425
0.000255425
0.000253928
0.000253928
0.000262103
0.000262103
0.000260321
0.000260321
0.000261006
0.000261006
0.000249376
0.000249376
0.000264175
0.000264175
0.000252409
0.000252409
0.000262171
0.000262171
0.000253353
0.000253353
0.000248372
0.000248372
0.000213394
0.000213394
0.000235714
0.000235714
0.000147861
0.000147861
0.00024432
0.00024432
0.00024136
0.00024136
3.67598e-05
3.67598e-05
0.000217985
0.000217985
0.00023855
0.00023855
0.000235458
0.000235458
0.000261375
0.000261375
0.00024874
0.00024874
0.000255755
0.000255755
0.000263187
0.000263187
0.000268404
0.000268404
0.000254627
0.000254627
0.000241635
0.000241635
4.34531e-05
4.34531e-05
2.32587e-05
2.32587e-05
2.32587e-05
0.000256944
0.000256944
0.000266508
0.000266508
0.000158696
0.000158696
0.000243686
0.000243686
0.000257631
0.000257631
5.2732e-05
5.2732e-05
0.000265056
0.000265056
0.00026274
0.00026274
0.000263327
0.000263327
0.000228755
0.000228755
0.000268363
0.000268363
0.000262537
0.000262537
0.0001331
0.0001331
0.000212453
0.000212453
0.00024605
0.00024605
0.000189929
0.000189929
0.000241299
0.000241299
0.000262453
0.000262453
3.21057e-05
3.21057e-05
3.21057e-05
0.000258882
0.000258882
0.000261671
0.000261671
0.000216454
0.000216454
0.000264126
0.000264126
0.000264365
0.000264365
0.000148991
0.000148991
0.000260743
0.000260743
0.000236803
0.000236803
0.000249028
0.000249028
0.000174722
0.000174722
0.000194512
0.000194512
0.000267036
0.000267036
0.000218164
0.000218164
0.000255486
0.000255486
0.000156807
0.000156807
0.000261175
0.000261175
0.000264775
0.000264775
0.000264711
0.000264711
0.0002635
0.0002635
0.000231526
0.000231526
0.000221121
0.000221121
0.000260329
0.000260329
0.00023009
0.00023009