/*--------------------------------*- C++ -*----------------------------------*\
  =========                 |
  \\      /  F ield         | OpenFOAM: The Open Source CFD Toolbox
   \\    /   O peration     | Website:  https://openfoam.org
    \\  /    A nd           | Version:  8
     \\/     M anipulation  |
\*---------------------------------------------------------------------------*/
FoamFile
{
    version     2.0;
    format      ascii;
    class       volScalarField;
    location    "0.55";
    object      p_rgh;
}
// * * * * * * * * * * * * * * * * * * * * * * * * * * * * * * * * * * * * * //

dimensions      [1 -1 -2 0 0 0 0];

internalField   nonuniform List<scalar> 
1924
(
218.549
-5.82028
-5.56693
-5.44022
-5.67421
-5.46945
-5.36262
-5.43076
-5.32833
-5.4797
-5.39986
-5.32737
1244.25
-5.42227
14.3725
4.03922
1114.5
-5.34096
719.449
-5.4113
1203.72
-5.88576
1264.15
-5.31231
11.2197
-5.99136
-6.65981
-4.09775
-5.92927
-4.72485
1276.12
24.8701
-5.17247
1266.99
-3.80364
1234.02
-6.59781
-5.85886
-4.64651
1280.73
-6.76902
1180.51
-6.64246
1212.09
-5.10563
-6.25512
464.347
-5.10381
1110.78
1145.49
622.195
1110.06
-5.16662
261.897
-6.51782
-5.19523
754.426
-5.2002
-5.19215
-2.2046
1142.34
-4.17512
1072.17
-4.54209
61.1248
-5.13824
-6.16206
1107.97
-6.19865
835.771
74.7347
-6.42113
-4.57667
-4.73147
-4.7269
111.917
-5.11493
-4.75637
-5.00765
947.635
-4.87948
-6.57577
-4.88248
1015.41
186.468
399.241
-5.24296
-3.84085
1107.66
66.9851
-6.28053
-6.35169
-6.12108
-6.37883
64.7328
59.8273
-5.14563
-4.92405
-1.45372
138.931
-5.79347
237.387
-1.58256
-2.32954
-6.36789
-4.82154
-6.04424
-6.75674
-4.95958
-5.56223
-5.13407
-6.12077
-5.722
-4.83575
-4.98395
1114.34
-5.69016
-2.31453
811.833
-5.00992
933.4
1053.71
1171.05
540.472
-6.12776
-4.95109
143.583
-4.75674
-5.07016
962.466
-5.0819
-5.95282
85.2983
-4.87651
222.086
-4.68282
-5.90042
-6.01223
-5.37819
-5.08112
-5.10489
-6.25036
145.578
69.1871
-5.42659
962.091
-5.64747
59.4696
0.919126
623.075
-4.86729
1048.99
89.8018
-5.70439
-5.53032
-4.84705
1123.23
-5.80366
-5.10168
17.5595
-4.80863
-6.26444
-5.60044
1021.62
3.87733
-4.71297
-5.18849
1156.58
-4.98181
-5.1781
-5.63015
-5.65051
-4.7996
-1.57402
-5.22633
10.8702
-4.71425
518.387
1201.89
-5.88266
-3.63329
12.8682
-4.83555
-5.19507
1127.58
9.91292
174.722
-7.00171
-5.00544
-4.82903
-5.59102
-5.60966
-5.06008
-5.86258
-6.63287
1009.32
-6.78747
34.8584
-6.08659
64.6177
-0.450604
-5.82826
-5.37209
-5.66834
-5.80439
-3.81496
-5.90524
165.299
60.4482
343.949
966.225
-6.18091
-5.56344
-6.61436
-6.89509
-4.80684
36.5874
-5.30708
-5.83395
-4.74188
-5.29071
-4.85896
-6.49474
-5.70836
-5.58528
-6.72038
-5.08506
-4.82541
-6.49606
26.2099
131.994
-1.34635
4.98586
334.31
-6.5665
18.6216
-5.34559
-5.89102
-6.3995
951.087
-6.26459
-4.76769
-5.22663
117.937
34.2004
58.1949
-5.65323
-5.1608
-4.81831
-4.80483
1.77055
944.366
-6.49368
-6.2431
-4.97104
-5.31137
-5.83411
-6.92776
-5.70861
-5.84079
-5.69253
-6.41991
-2.52058
-4.84428
55.1035
-4.70169
1196.12
-4.76437
-6.95848
653.343
6.31275
-4.94905
-5.85607
-6.53429
-1.40982
-4.84187
-5.59317
-6.53109
-5.95684
-4.84123
334.868
971.347
-4.63261
-6.38269
993.867
-4.80582
-5.0404
939.714
-5.92999
-6.94606
-6.29197
-4.63108
-6.41952
-5.19168
1121.45
-2.01746
-0.938947
44.5768
-4.74624
-5.32155
952.848
-6.1283
-5.05669
37.8448
-5.70549
-6.45273
1222.45
-4.992
0.0516446
-5.00268
57.1774
129.63
-6.39599
9.35863
-4.99362
1248.4
-6.83842
-5.90958
-6.334
-6.72686
-4.67537
5.45548
-6.03515
-4.23579
-6.74312
-4.82012
-6.93658
-5.81171
-5.24778
-5.06948
-4.7046
-6.03411
1.25801
-5.60185
-4.71107
-6.39407
-1.43201
-6.23658
-6.31737
-6.12367
-4.80286
-4.7862
88.9079
43.5855
19.2899
-6.55113
60.9364
-6.34981
5.54539
-6.76473
-6.97536
45.9245
16.7959
-4.99734
43.4414
-4.77252
1112.92
-6.03859
-6.16118
59.8777
-6.28688
1.25635
-4.94782
-3.70917
-7.26738
-6.06723
73.8031
26.4431
-6.32514
-6.27048
-4.90555
-6.69267
-6.16825
2.74714
-6.49772
575.05
20.2576
18.9061
96.9537
-6.35509
-6.41661
-4.75452
-6.88956
-6.58852
5.36488
-4.86832
-4.69454
-5.97514
-6.66032
-6.10896
8.65059
-0.789063
-6.80364
-6.11372
-6.20514
300.868
-6.0294
94.1336
-5.01999
-6.50499
936.744
-4.72143
39.9364
-7.08846
1151.27
-5.74645
-4.84649
-6.24324
-6.05906
-6.94278
-5.46301
0.823101
-6.06732
-6.05103
-6.25875
13.6218
-4.80656
-3.46795
779.991
-5.17805
-4.8119
48.5977
-4.82727
43.0613
6.69181
-4.87314
-4.9567
-4.65823
26.4535
-5.93131
-5.76078
-4.79394
-5.13406
878.74
-6.24991
-6.32934
-4.83893
1090.4
-6.11203
98.3344
13.6312
-6.5874
-6.62728
-0.642038
-6.24558
372.243
-4.10199
-4.70578
-6.77834
-5.74109
20.2875
-2.95731
-6.48935
-5.04699
-5.34961
-6.62396
-4.82268
21.283
838.224
-6.25627
-4.77359
97.2578
1202.87
380.338
38.9501
-2.93673
-6.0612
-6.25036
-6.09846
-4.98086
-7.00284
5.03733
-4.67368
-4.80178
48.2283
-4.75795
-4.67598
-6.25264
-6.12506
-6.3506
-1.50993
-6.22843
23.8256
-6.21742
86.2442
-7.20865
-5.37976
-5.79449
16.8247
-4.97755
1146.93
-2.25951
878.548
-5.22743
-4.79465
-4.7995
-5.80064
-5.49134
-4.84147
-3.5994
-4.79832
21.4429
50.587
104.927
132.496
-6.92308
9.86667
-5.30713
-4.09664
-4.80158
-4.73347
-4.78263
-2.0684
-6.48901
31.5809
14.745
102.848
-6.6085
-6.18055
-6.25734
409.311
22.3377
-4.77009
-4.78067
-6.36597
-6.47904
-4.69044
1123.41
-6.61383
-6.2874
21.2243
-6.22079
2.0428
835.963
18.0666
-6.16226
-6.28049
49.129
1246.77
-7.6724
2.44852
-0.0179778
928.188
-4.7171
-4.78008
-6.3316
-4.66285
-4.5125
-1.34777
-4.98931
-6.70526
37.8864
-6.23566
875.175
-4.91962
1006.77
1171.88
619.203
0.155726
-4.65196
55.541
9.01357
131.071
27.6698
3.68207
22.7875
-4.75756
-5.16404
-4.67657
-4.79611
-4.76522
35.3033
-5.10887
51.5692
-4.69678
13.6569
1232.61
90.1509
-4.78388
506.201
103.806
-5.6493
-6.21171
52.3588
60.1394
989.373
-4.77077
3.99711
-4.76716
-4.41881
-7.44621
560.224
762.39
146.011
701.706
-4.76947
-6.2527
-4.89753
4.58584
5.12991
59.6846
-4.50864
-6.26335
-4.60998
-0.0206557
-6.48049
-6.44832
-4.73927
18.0904
3.26732
-7.65531
22.5903
1246.34
-4.93774
9.6367
-3.46382
-6.32784
17.1226
59.434
-4.36052
-4.76182
-4.75367
-5.20916
52.5796
-6.29909
-4.67897
1074
2.38361
-6.25015
999.588
-6.03295
-6.93108
-4.86947
3.77159
776.901
59.4845
-7.00593
-0.747193
2.44902
-4.74816
38.7
46.6505
-5.2582
-6.24795
-5.26718
23.3792
90.0879
-5.66256
32.081
21.5059
3.53389
49.5977
-5.6055
-6.23961
1119.54
54.3508
3.43158
-4.72593
-7.22735
761.329
169.729
888.641
-4.68757
-4.75532
10.0784
-4.72157
-7.98188
-1.2931
27.843
2.45485
-5.14569
-4.74236
1065.1
-4.95497
22.8612
-4.74448
-6.35576
-5.91626
634.974
1212.54
-4.79089
-4.81364
0.123308
6.43347
-8.12857
-6.34947
-6.23432
951.564
-4.75419
938.428
-4.44026
-6.33226
-5.15673
-7.14174
2.4366
-4.31223
1250.31
-4.70875
-4.73196
-0.614154
-4.74387
3.31225
-6.92368
661.017
95.9473
-6.81515
16.9153
-7.18653
-4.74096
354.737
2.82903
696.919
-0.68265
953.36
-7.45623
-4.56217
18.8271
3.49998
8.41722
556.503
-4.69753
17.7562
-4.73111
1040.62
-1.96338
874.898
597.543
58.9389
16.6258
-4.74277
3.25448
150.585
133.085
-6.37276
6.25553
-7.669
0.405603
4.48916
1.12365
3.23294
319.326
-6.53677
-4.73345
59.5035
-5.20614
10.0288
197.761
1087.37
4.37276
-4.73322
-7.81831
-0.410893
-6.42678
154.414
7.66054
-6.2401
-4.65587
58.5938
956.844
17.883
-4.67137
-6.41873
-5.48421
-4.73832
-7.73947
381.198
-2.46023
-5.75571
864.391
-5.79137
17.8573
-7.26254
-3.74766
-6.74104
259.627
-4.76846
300.174
-5.2341
922.657
-6.88196
3.17872
-4.71552
-6.47192
16.903
-5.52842
-4.68013
-5.74846
-6.39461
-4.82259
-3.08655
13.4083
2.95713
-4.82362
-6.67698
-6.74101
-4.72975
-4.75391
66.5711
-6.30805
1.25935
1132.41
17.1373
-7.81648
-4.65707
-4.72135
-1.10974
15.4411
18.2178
-6.60581
60.6353
-4.67889
-4.73606
-2.41048
59.6507
-0.947378
985.691
-5.75946
642.76
-7.85147
861.997
3.19089
-6.17809
-0.843955
705.223
-6.22603
-4.72653
-5.52898
-6.27715
-3.15698
707.723
17.1445
-4.72586
-2.48486
-3.12255
-6.98474
-0.68637
-4.70562
-6.05934
-4.73121
1107.05
-5.15529
59.2775
2.98923
-5.08362
1163.27
3.12215
3.74472
-6.78764
17.9258
1.72058
-6.63213
-6.35172
816.473
-4.71206
18.3077
-6.73594
2.99446
6.35321
162.939
-4.6946
-6.27437
2.94939
-6.68403
-4.66888
3.15268
-6.53915
277.922
-3.73905
877.224
4.72742
-4.72384
0.0404615
3.25771
-6.36329
17.6526
-4.65737
-4.71706
2.90354
1106.47
-5.4942
-4.59724
-2.34198
13.0081
-4.67915
-0.526584
-2.31276
-6.46708
-5.2077
-6.2065
-6.19664
-0.150127
-4.72235
925.456
-5.29006
-4.80448
-4.78525
-4.74195
19.0416
3.18905
-5.42172
252.086
-4.66772
-2.93685
55.7831
-0.985559
-3.9936
-4.872
633.129
-5.65105
-4.92816
-2.53017
-4.66872
-4.73038
59.4106
53.6534
-6.17053
689.095
-0.583467
-7.78489
-4.69887
-4.6942
5.16199
-5.5089
955.233
-4.72468
3.7821
-4.71468
-6.15774
-6.14036
4.01528
-9.17617
3.17222
2.50094
2.47569
-6.56522
852.891
-4.26545
0.947586
2.2278
-6.31649
-4.70592
59.0834
-4.71809
219.788
57.9307
-4.76827
-4.34999
-6.48341
755.087
18.9908
3.11029
2.5535
17.0778
-0.884258
-6.17751
887.265
3.28923
453.769
485.817
-6.06969
498.827
-4.7239
-3.20956
-5.91392
97.43
-6.36204
-5.24972
-4.45557
-5.12646
253.864
-4.71281
-5.60615
-4.69621
-8.4048
-5.44948
-4.65225
-1.32744
-7.89201
-6.17187
174.632
7.46689
0.327219
3.47643
-7.73066
-0.853408
-6.1942
-6.38231
874.784
111.922
1.32537
-4.24576
-6.31127
-4.71543
-8.29817
-0.261899
-4.70155
2.69354
-6.11909
-4.76856
2.58046
-2.60042
325.126
2.86014
-4.60643
-2.20914
456.495
14.8095
-5.13333
-4.76165
950.609
-7.93989
381.646
-5.90166
-4.17202
-4.74687
-4.72423
-6.44077
-4.41301
-4.3298
-5.61049
-4.84899
-5.17407
-4.81929
837.42
-4.70852
-4.71443
-6.39132
-6.64808
-6.20611
-4.914
-4.5797
294.265
3.42801
-4.71735
-6.10975
43.1078
37.792
-7.69257
-5.17334
52.2018
-8.56398
3.88612
16.2286
-6.16516
-6.12517
-5.87308
-8.51258
-4.71354
-7.82389
-6.38809
-6.32066
-7.83417
-4.95812
131.566
-8.11071
-4.85696
-5.68205
-5.31311
-5.03434
-6.13852
0.769634
-7.18948
3.92219
-0.764018
-3.41091
5.74387
-4.70952
-5.28739
-8.95093
-4.71066
56.6853
-5.81321
40.4804
-7.96804
-2.58587
-7.27432
-6.15311
53.189
-4.32722
-4.40455
-8.88074
-4.67398
-6.37152
-5.92195
478.113
4.75673
2.09169
-4.72878
-1.3972
-5.79009
-6.7163
-6.69444
-5.86891
-4.68541
-4.66205
-8.11813
-6.30875
-0.627001
-4.88654
-6.11767
38.6707
-0.241899
-7.0617
3.08896
-4.65357
-7.87499
59.4825
3.80282
-7.51281
-5.91088
-8.21878
37.7811
-6.03644
59.6025
59.6475
-5.88559
3.66325
-7.97175
-4.7868
-1.94493
-8.24758
-7.23505
4.68433
-5.16379
-4.76628
-4.72915
13.6832
-6.14326
-3.66395
-4.71687
-4.73189
-5.6911
-6.03743
-5.61915
-5.21513
1.15498
-8.43363
-4.72042
-4.7137
19.9605
-6.16255
-4.35829
59.4337
25.3994
4.56566
-7.39424
-4.70539
-7.86814
-6.74093
-4.66043
1149.71
-6.07587
-4.70914
-5.64434
-5.90912
-5.21156
-4.83599
4.27736
-6.02275
727.004
-3.56232
-6.93564
58.5474
-4.70781
-7.81238
1079.67
10.923
-6.06827
-4.69601
-7.14573
-4.88146
2.39326
3.64214
11.6731
-6.12809
-5.85066
-6.09697
957.127
-4.89185
-5.99263
-5.99679
4.46788
-5.5828
2.83288
-6.34951
-0.680612
40.1939
-7.30712
-7.0383
-7.44226
-4.71187
-2.25569
-7.29768
886.159
-4.67355
-5.81083
972.32
-7.6611
-3.78774
5.61362
-5.98153
-5.31353
-6.01466
0.688266
-5.96947
-5.1038
-7.27844
966.76
-4.6793
-5.84585
-6.01243
-5.02049
6.08277
-5.46317
11.705
873.611
-5.6891
-7.17204
-4.73522
1098.23
1102.11
-6.78387
-7.31565
-6.57461
904.376
-5.23759
4.4609
5.49044
59.5653
-4.71293
-4.72349
-7.01711
-6.57619
-4.76759
-5.78855
-5.79844
-5.68444
1.92409
-5.936
-0.20926
-4.96678
-5.86979
-5.90794
9.83905
12.2812
-5.48683
-6.78529
-5.9802
-1.71147
5.96098
-5.62554
-3.22207
-5.81755
-4.58848
-5.91723
-4.80978
-4.70764
958.28
979.024
-5.89172
-5.92505
-5.6067
55.8252
958.695
-6.94009
6.96485
4.04815
-6.29035
1.07482
-4.79221
-6.48416
-4.70405
6.72827
5.03512
-4.71404
-6.56159
-5.49753
-6.68875
3.13584
5.97757
59.7066
-5.88445
-5.72931
25.0332
-5.89078
-4.72666
-6.4265
-5.53256
-5.811
-6.62255
-5.80741
-6.62228
-5.88972
965.798
-5.86158
6.80364
-5.67515
-5.54335
-5.92545
-6.75411
-4.6674
-6.22448
-6.52235
968.164
-5.09911
-5.83176
-4.71774
-5.86013
-4.68268
2.31029
-5.56943
-4.87906
-4.66202
242.368
-6.50148
-4.71425
-4.91791
6.23575
-5.76955
-5.75715
59.3463
-5.66841
-5.82091
-5.80609
-6.67105
-5.68339
-4.66243
-5.71819
-4.72797
4.78407
-5.81484
-5.13923
3.77849
-5.70831
-6.08467
5.80359
-4.69926
5.80681
-5.26124
-4.73673
-4.70183
952.459
2.81403
-5.68867
46.0134
-5.65284
-5.80453
225.385
-5.79582
-6.48842
-5.57616
-4.83648
59.1992
-4.70564
-5.79289
-5.42883
-4.61128
1067.81
1076.52
9.02338
963.444
-5.79737
9.6808
-5.80107
-5.35907
-5.84237
-5.77529
-5.37997
-5.60064
686.031
-5.51507
-4.65521
-4.64747
-5.29809
-5.44628
967.504
-4.71116
-5.70881
5.94622
-5.86318
0.691989
7.71503
-0.580366
-5.71643
15.363
961.423
962.761
-2.00938
-4.93865
982.052
-5.76491
-5.94894
955.95
-3.41886
-5.76142
-4.66464
-4.69464
863.823
-5.59025
-6.48192
463.729
-5.77218
-5.61802
970.074
-4.70894
-6.16502
-5.56045
7.48146
-5.69615
-5.6788
-5.6499
-5.9582
-5.47826
-5.57761
7.3465
-5.40157
1.9
-5.58138
961.832
-5.69325
-4.682
-5.43139
7.46433
11.4718
30.6197
971.565
-6.40812
-4.87722
-4.74499
-5.36816
-6.04307
-5.68928
7.3767
-5.70155
-5.56053
-4.72937
-4.67681
-5.26371
9.44158
-5.9522
-4.69643
-5.70769
-5.33903
-5.28981
-5.38443
2.91105
-5.06896
-5.17594
3.88239
-5.575
-4.97296
-4.76181
-5.69251
-4.68645
-5.20223
-6.41639
-5.50863
-5.10895
-5.20389
4.93034
-5.08477
-6.09265
-5.59819
-5.37681
445.311
-5.10767
-4.70049
-5.16681
-5.05443
-5.07538
-5.37863
964.879
-5.17524
967.263
-5.09905
9.02266
-5.57713
986.52
-5.37812
-5.73193
-4.6382
-5.36085
979.839
-4.7198
-5.61074
970.14
13.1043
17.8135
777.379
-5.12185
-4.69656
-4.76737
963.917
-4.64496
-4.64797
6.13332
-5.41348
10.2671
-4.80929
-4.67631
-5.62228
-4.73879
-5.3843
10.0807
-4.67746
-6.2019
-5.13565
-4.67734
-4.65252
-4.68022
967.941
1.11506
-5.18089
965.503
-0.116716
-5.20278
-1.50864
-4.84465
-5.0956
-2.92407
-5.42539
-5.65021
-4.2275
-4.47117
-4.61659
7.59839
-5.25898
-5.9505
-4.67738
1.66054
-4.52164
-5.12593
-5.52221
-4.38556
-5.22686
938.952
837.458
889.043
-6.30072
-4.83378
-5.48262
-4.93924
-5.47528
-4.3488
975.281
-5.69196
-4.32012
-4.63628
-5.56657
9.15701
8.84266
965.884
-6.39654
-5.35147
-5.22828
13.8038
-4.61766
-4.13628
-4.31361
-4.60483
-4.2955
2.27983
3.30597
-5.50343
-4.98308
4.30281
-5.028
-5.81368
-4.19167
-5.59662
984.584
-6.08163
-5.71719
-5.55625
8.55752
-4.65259
-4.99623
-4.38135
-4.69617
-4.83728
-4.57447
-4.40324
-4.88832
-4.0641
5.42108
-4.77034
-4.57304
-4.85896
11.5245
-4.65001
-6.25746
-4.92313
931.372
966.644
967.266
-4.60655
-4.02878
-3.99403
-4.53571
-5.66134
-4.83248
980.74
12.4428
-4.68702
-4.05954
-4.84236
-4.93716
-4.07072
-4.65846
-4.21983
-5.207
-4.4239
-4.79332
-4.68562
-4.67824
6.699
-5.31158
-4.58593
-3.88236
-4.71513
-5.00314
-4.96832
-5.09453
-5.02015
968.246
-4.79446
-5.92337
8.28713
-3.8401
-5.42878
12.7479
-4.72349
-4.29585
-4.60759
-5.43946
-3.81919
-5.58343
-5.42312
-4.87209
-4.73284
-5.67743
-4.53882
-4.08388
-5.51557
-4.80924
-3.90265
965.28
-3.70224
-5.06737
-3.75374
-4.62581
-4.53245
-4.69406
11.0759
9.56774
-4.74654
968.879
-5.34425
-4.63618
-4.5629
-4.61074
-3.97495
-4.89319
-5.29443
-4.56588
-4.80138
-3.82333
-4.61963
-3.63142
-4.52915
971.205
976.648
-3.60783
-4.67831
-4.52977
11.1025
51.7698
-4.46079
-5.4652
-4.6906
-4.87411
-4.14383
-4.65194
-5.34323
-5.47825
-3.66672
-3.49611
-3.62359
-4.14326
-4.5966
-4.55061
-5.0854
-4.49133
-4.75787
-3.82267
-3.37031
10.7382
-3.47186
-4.6065
-3.83658
968.226
966.335
-4.83011
-3.40507
-4.52409
-5.05726
-5.14923
-4.71532
-4.57139
-5.14079
-4.52952
-4.21056
-4.49354
-4.58157
-3.52236
-4.50145
-3.60029
-4.65686
-4.61189
-4.24672
-4.48905
-4.55869
-5.24539
-5.30327
-4.54443
-4.63405
-4.62582
-4.45309
-3.42137
-4.91653
-3.92407
-3.27947
-3.29318
-4.4539
-4.09388
-4.19837
-4.75429
12.5994
-4.65987
-3.61203
-3.21786
-4.55825
-4.46788
-4.45767
-4.87188
-4.9168
-4.79814
-5.02244
-4.43909
-4.84532
-3.34384
-4.47618
-4.58678
-4.50011
-3.88804
-4.43307
-3.15199
-3.12915
-3.20054
-4.53097
-4.49013
-3.63596
-4.78879
-4.50858
-3.44052
-4.43631
-4.4474
-3.29464
-4.66201
-4.52545
-4.51455
-4.49263
-4.46638
-4.50268
968.407
969.263
-4.4701
970.235
-4.47233
971.32
-3.63936
-3.57547
-5.0958
-3.80331
-3.88644
-4.5772
-3.39836
-3.44642
-5.01368
-4.87748
-4.63068
-4.60966
-5.00353
-4.55557
-4.57142
-4.67751
-4.70456
-4.48638
-3.13315
-3.13662
-3.17788
-3.19817
-3.30075
-3.26672
-4.76312
-4.47207
-4.89759
-4.54825
-4.6876
-4.6091
12.2867
12.437
950.105
914.312
924.942
12.407
11.3831
2.00972
59.7171
10.9529
12.2054
1184.43
-4.92152
932.363
838.649
12.2302
918.038
122.903
1121.8
944.349
34.2881
907.66
903.136
62.4444
939.778
59.5751
59.4831
955.675
1034.92
719.937
1063.25
936.65
1015.15
853.418
915.19
939.092
1095.61
1139.39
1128.11
922.557
30.216
856.604
961.379
350.674
97.7221
946.593
946.521
872.849
750.263
-4.8945
884.1
1220.64
1241.97
1051.63
960.706
1044.32
903.403
968.923
1067.83
1020.04
1263.33
1257.48
946.251
7.92437
1131.92
-4.91177
1061.87
1126.01
157.789
1137.55
1141.15
988.744
9.06234
1102.52
1206.48
790.774
1145.77
1151.07
997.864
774.598
933.975
-4.89403
903.211
9.97226
59.6713
638.069
-5.04999
729.836
571.864
1039.35
890.088
25.2157
-5.23655
1047.45
956.702
1257.89
45.7974
-4.92897
1108.57
-4.91003
41.2606
1109.92
10.5862
-4.99534
628.786
389.931
441.653
1149.46
1133.23
984.748
34.3938
1219.78
1182.48
-5.14975
)
;

boundaryField
{
    patch0
    {
        type            fixedFluxPressure;
        gradient        uniform 0;
        value           nonuniform List<scalar> 
4010
(
218.549
218.549
-5.82028
-5.82028
-5.56693
-5.56693
-5.44022
-5.44022
-5.67421
-5.67421
-5.46945
-5.46945
-5.36262
-5.36262
-5.43076
-5.43076
-5.32833
-5.32833
-5.4797
-5.4797
-5.39986
-5.39986
-5.32737
-5.32737
1244.25
1244.25
-5.42227
-5.42227
14.3725
14.3725
4.03922
4.03922
1114.5
1114.5
-5.34096
-5.34096
719.449
719.449
-5.4113
-5.4113
1203.72
1203.72
-5.88576
-5.88576
1264.15
1264.15
-5.31231
-5.31231
11.2197
11.2197
-5.99136
-5.99136
-6.65981
-6.65981
-4.09775
-4.09775
-5.92927
-5.92927
-4.72485
-4.72485
1276.12
1276.12
24.8701
24.8701
-5.17247
-5.17247
1266.99
1266.99
-3.80364
-3.80364
1234.02
1234.02
-6.59781
-6.59781
-5.85886
-5.85886
-4.64651
-4.64651
1280.73
1280.73
-6.76902
-6.76902
1180.51
1180.51
-6.64246
-6.64246
1212.09
1212.09
-5.10563
-5.10563
-6.25512
-6.25512
464.347
464.347
-5.10381
-5.10381
1110.78
1110.78
1145.49
1145.49
622.195
622.195
1110.06
1110.06
-5.16662
-5.16662
261.897
261.897
-6.51782
-6.51782
-5.19523
-5.19523
754.426
754.426
-5.2002
-5.2002
-5.19215
-5.19215
-2.2046
-2.2046
1142.34
1142.34
-4.17512
-4.17512
1072.17
1072.17
-4.54209
-4.54209
61.1248
61.1248
-5.13824
-5.13824
-6.16206
-6.16206
1107.97
1107.97
-6.19865
-6.19865
835.771
835.771
74.7347
74.7347
-6.42113
-6.42113
-4.57667
-4.57667
-4.73147
-4.73147
-4.7269
-4.7269
111.917
111.917
-5.11493
-5.11493
-4.75637
-4.75637
-5.00765
-5.00765
947.635
947.635
-4.87948
-4.87948
-6.57577
-6.57577
-4.88248
-4.88248
1015.41
1015.41
186.468
186.468
399.241
399.241
-5.24296
-5.24296
-3.84085
-3.84085
1107.66
1107.66
66.9851
66.9851
-6.28053
-6.28053
-6.35169
-6.35169
-6.12108
-6.12108
-6.37883
-6.37883
64.7328
64.7328
59.8273
59.8273
-5.14563
-5.14563
-4.92405
-4.92405
-1.45372
-1.45372
138.931
138.931
-5.79347
-5.79347
237.387
237.387
-1.58256
-1.58256
-2.32954
-2.32954
-6.36789
-6.36789
-4.82154
-4.82154
-6.04424
-6.04424
-6.75674
-6.75674
-4.95958
-4.95958
-5.56223
-5.56223
-5.13407
-5.13407
-6.12077
-6.12077
-5.722
-5.722
-4.83575
-4.83575
-4.98395
-4.98395
1114.34
1114.34
-5.69016
-5.69016
-2.31453
-2.31453
811.833
811.833
-5.00992
-5.00992
933.4
933.4
1053.71
1053.71
1171.05
1171.05
540.472
540.472
-6.12776
-6.12776
-4.95109
-4.95109
143.583
143.583
-4.75674
-4.75674
-5.07016
-5.07016
962.466
962.466
-5.0819
-5.0819
-5.95282
-5.95282
85.2983
85.2983
-4.87651
-4.87651
222.086
222.086
-4.68282
-4.68282
-5.90042
-5.90042
-6.01223
-6.01223
-5.37819
-5.37819
-5.08112
-5.08112
-5.10489
-5.10489
-6.25036
-6.25036
145.578
145.578
145.578
69.1871
69.1871
69.1871
-5.42659
-5.42659
962.091
962.091
-5.64747
-5.64747
59.4696
59.4696
0.919126
0.919126
623.075
623.075
-4.86729
-4.86729
1048.99
1048.99
1048.99
89.8018
89.8018
-5.70439
-5.70439
-5.53032
-5.53032
-4.84705
-4.84705
1123.23
1123.23
-5.80366
-5.80366
-5.10168
-5.10168
17.5595
17.5595
-4.80863
-4.80863
-6.26444
-6.26444
-5.60044
-5.60044
1021.62
1021.62
3.87733
3.87733
-4.71297
-4.71297
-5.18849
-5.18849
1156.58
1156.58
-4.98181
-4.98181
-5.1781
-5.1781
-5.63015
-5.63015
-5.65051
-5.65051
-4.7996
-4.7996
-1.57402
-1.57402
-5.22633
-5.22633
10.8702
10.8702
-4.71425
-4.71425
518.387
518.387
1201.89
1201.89
-5.88266
-5.88266
-3.63329
-3.63329
12.8682
12.8682
-4.83555
-4.83555
-5.19507
-5.19507
1127.58
1127.58
9.91292
9.91292
174.722
174.722
-7.00171
-7.00171
-5.00544
-5.00544
-4.82903
-4.82903
-5.59102
-5.59102
-5.60966
-5.60966
-5.06008
-5.06008
-5.86258
-5.86258
-6.63287
-6.63287
1009.32
1009.32
1009.32
-6.78747
-6.78747
34.8584
34.8584
-6.08659
-6.08659
64.6177
64.6177
-0.450604
-0.450604
-5.82826
-5.82826
-5.37209
-5.37209
-5.66834
-5.66834
-5.80439
-5.80439
-3.81496
-3.81496
-5.90524
-5.90524
165.299
165.299
60.4482
60.4482
343.949
343.949
343.949
966.225
966.225
-6.18091
-6.18091
-5.56344
-5.56344
-6.61436
-6.61436
-6.89509
-6.89509
-4.80684
-4.80684
36.5874
36.5874
-5.30708
-5.30708
-5.83395
-5.83395
-4.74188
-4.74188
-5.29071
-5.29071
-4.85896
-4.85896
-6.49474
-6.49474
-5.70836
-5.70836
-5.58528
-5.58528
-6.72038
-6.72038
-5.08506
-5.08506
-4.82541
-4.82541
-6.49606
-6.49606
26.2099
26.2099
131.994
131.994
-1.34635
-1.34635
4.98586
4.98586
334.31
334.31
-6.5665
-6.5665
18.6216
18.6216
18.6216
-5.34559
-5.34559
-5.89102
-5.89102
-6.3995
-6.3995
951.087
951.087
951.087
-6.26459
-6.26459
-4.76769
-4.76769
-5.22663
-5.22663
117.937
117.937
34.2004
34.2004
58.1949
58.1949
-5.65323
-5.65323
-5.1608
-5.1608
-4.81831
-4.81831
-4.80483
-4.80483
1.77055
1.77055
944.366
944.366
-6.49368
-6.49368
-6.2431
-6.2431
-4.97104
-4.97104
-5.31137
-5.31137
-5.83411
-5.83411
-6.92776
-6.92776
-5.70861
-5.70861
-5.84079
-5.84079
-5.69253
-5.69253
-6.41991
-6.41991
-2.52058
-2.52058
-4.84428
-4.84428
55.1035
55.1035
-4.70169
-4.70169
1196.12
1196.12
-4.76437
-4.76437
-6.95848
-6.95848
653.343
653.343
6.31275
6.31275
-4.94905
-4.94905
-5.85607
-5.85607
-6.53429
-6.53429
-1.40982
-1.40982
-4.84187
-4.84187
-5.59317
-5.59317
-6.53109
-6.53109
-5.95684
-5.95684
-4.84123
-4.84123
334.868
334.868
971.347
971.347
971.347
-4.63261
-4.63261
-6.38269
-6.38269
993.867
993.867
-4.80582
-4.80582
-5.0404
-5.0404
939.714
939.714
-5.92999
-5.92999
-6.94606
-6.94606
-6.29197
-6.29197
-4.63108
-4.63108
-6.41952
-6.41952
-5.19168
-5.19168
1121.45
1121.45
-2.01746
-2.01746
-0.938947
-0.938947
44.5768
44.5768
-4.74624
-4.74624
-5.32155
-5.32155
952.848
952.848
952.848
-6.1283
-6.1283
-5.05669
-5.05669
37.8448
37.8448
-5.70549
-5.70549
-6.45273
-6.45273
1222.45
1222.45
-4.992
-4.992
0.0516446
0.0516446
-5.00268
-5.00268
57.1774
57.1774
129.63
129.63
-6.39599
-6.39599
9.35863
9.35863
-4.99362
-4.99362
1248.4
1248.4
-6.83842
-6.83842
-5.90958
-5.90958
-6.334
-6.334
-6.72686
-6.72686
-4.67537
-4.67537
5.45548
5.45548
-6.03515
-6.03515
-4.23579
-4.23579
-6.74312
-6.74312
-4.82012
-4.82012
-6.93658
-6.93658
-5.81171
-5.81171
-5.24778
-5.24778
-5.06948
-5.06948
-4.7046
-4.7046
-6.03411
-6.03411
1.25801
1.25801
-5.60185
-5.60185
-4.71107
-4.71107
-6.39407
-6.39407
-1.43201
-1.43201
-6.23658
-6.23658
-6.31737
-6.31737
-6.12367
-6.12367
-4.80286
-4.80286
-4.7862
-4.7862
88.9079
88.9079
43.5855
43.5855
19.2899
19.2899
-6.55113
-6.55113
60.9364
60.9364
-6.34981
-6.34981
5.54539
5.54539
-6.76473
-6.76473
-6.97536
-6.97536
45.9245
45.9245
16.7959
16.7959
-4.99734
-4.99734
43.4414
43.4414
-4.77252
-4.77252
1112.92
1112.92
-6.03859
-6.03859
-6.16118
-6.16118
59.8777
59.8777
-6.28688
-6.28688
1.25635
1.25635
-4.94782
-4.94782
-3.70917
-3.70917
-7.26738
-7.26738
-6.06723
-6.06723
73.8031
73.8031
26.4431
26.4431
-6.32514
-6.32514
-6.27048
-6.27048
-4.90555
-4.90555
-6.69267
-6.69267
-6.16825
-6.16825
2.74714
2.74714
-6.49772
-6.49772
575.05
575.05
20.2576
20.2576
18.9061
18.9061
96.9537
96.9537
-6.35509
-6.35509
-6.41661
-6.41661
-4.75452
-4.75452
-6.88956
-6.88956
-6.58852
-6.58852
5.36488
5.36488
-4.86832
-4.86832
-4.69454
-4.69454
-5.97514
-5.97514
-6.66032
-6.66032
-6.10896
-6.10896
8.65059
8.65059
-0.789063
-0.789063
-6.80364
-6.80364
-6.11372
-6.11372
-6.20514
-6.20514
300.868
300.868
300.868
-6.0294
-6.0294
94.1336
94.1336
-5.01999
-5.01999
-6.50499
-6.50499
936.744
936.744
-4.72143
-4.72143
39.9364
39.9364
-7.08846
-7.08846
1151.27
1151.27
1151.27
-5.74645
-5.74645
-4.84649
-4.84649
-6.24324
-6.24324
-6.05906
-6.05906
-6.94278
-6.94278
-5.46301
-5.46301
0.823101
0.823101
-6.06732
-6.06732
-6.05103
-6.05103
-6.25875
-6.25875
13.6218
13.6218
-4.80656
-4.80656
-3.46795
-3.46795
779.991
779.991
-5.17805
-5.17805
-4.8119
-4.8119
48.5977
48.5977
-4.82727
-4.82727
43.0613
43.0613
6.69181
6.69181
-4.87314
-4.87314
-4.9567
-4.9567
-4.65823
-4.65823
26.4535
26.4535
-5.93131
-5.93131
-5.76078
-5.76078
-4.79394
-4.79394
-5.13406
-5.13406
878.74
878.74
-6.24991
-6.24991
-6.32934
-6.32934
-4.83893
-4.83893
1090.4
1090.4
-6.11203
-6.11203
98.3344
98.3344
13.6312
13.6312
-6.5874
-6.5874
-6.62728
-6.62728
-0.642038
-0.642038
-6.24558
-6.24558
372.243
372.243
372.243
-4.10199
-4.10199
-4.70578
-4.70578
-6.77834
-6.77834
-5.74109
-5.74109
20.2875
20.2875
-2.95731
-2.95731
-6.48935
-6.48935
-5.04699
-5.04699
-5.34961
-5.34961
-6.62396
-6.62396
-4.82268
-4.82268
21.283
21.283
838.224
838.224
-6.25627
-6.25627
-4.77359
-4.77359
97.2578
97.2578
1202.87
1202.87
380.338
380.338
38.9501
38.9501
-2.93673
-2.93673
-6.0612
-6.0612
-6.25036
-6.25036
-6.09846
-6.09846
-4.98086
-4.98086
-7.00284
-7.00284
5.03733
5.03733
-4.67368
-4.67368
-4.80178
-4.80178
48.2283
48.2283
-4.75795
-4.75795
-4.67598
-4.67598
-6.25264
-6.25264
-6.12506
-6.12506
-6.3506
-6.3506
-1.50993
-1.50993
-6.22843
-6.22843
23.8256
23.8256
-6.21742
-6.21742
86.2442
86.2442
-7.20865
-7.20865
-5.37976
-5.37976
-5.79449
-5.79449
16.8247
16.8247
-4.97755
-4.97755
1146.93
1146.93
-2.25951
-2.25951
878.548
878.548
-5.22743
-5.22743
-4.79465
-4.79465
-4.7995
-4.7995
-5.80064
-5.80064
-5.49134
-5.49134
-4.84147
-4.84147
-3.5994
-3.5994
-4.79832
-4.79832
21.4429
21.4429
50.587
50.587
104.927
104.927
132.496
132.496
-6.92308
-6.92308
9.86667
9.86667
-5.30713
-5.30713
-4.09664
-4.09664
-4.80158
-4.80158
-4.73347
-4.73347
-4.78263
-4.78263
-2.0684
-2.0684
-6.48901
-6.48901
31.5809
31.5809
14.745
14.745
102.848
102.848
-6.6085
-6.6085
-6.18055
-6.18055
-6.25734
-6.25734
409.311
409.311
22.3377
22.3377
-4.77009
-4.77009
-4.78067
-4.78067
-6.36597
-6.36597
-6.47904
-6.47904
-4.69044
-4.69044
1123.41
1123.41
-6.61383
-6.61383
-6.2874
-6.2874
21.2243
21.2243
-6.22079
-6.22079
2.0428
2.0428
835.963
835.963
18.0666
18.0666
-6.16226
-6.16226
-6.28049
-6.28049
49.129
49.129
1246.77
1246.77
-7.6724
-7.6724
2.44852
2.44852
-0.0179778
-0.0179778
928.188
928.188
-4.7171
-4.7171
-4.78008
-4.78008
-6.3316
-6.3316
-4.66285
-4.66285
-4.5125
-4.5125
-1.34777
-1.34777
-4.98931
-4.98931
-6.70526
-6.70526
37.8864
37.8864
-6.23566
-6.23566
875.175
875.175
-4.91962
-4.91962
1006.77
1006.77
1171.88
1171.88
619.203
619.203
0.155726
0.155726
-4.65196
-4.65196
55.541
55.541
9.01357
9.01357
131.071
131.071
27.6698
27.6698
3.68207
3.68207
22.7875
22.7875
-4.75756
-4.75756
-5.16404
-5.16404
-4.67657
-4.67657
-4.79611
-4.79611
-4.76522
-4.76522
35.3033
35.3033
-5.10887
-5.10887
51.5692
51.5692
-4.69678
-4.69678
13.6569
13.6569
1232.61
1232.61
90.1509
90.1509
-4.78388
-4.78388
506.201
506.201
103.806
103.806
-5.6493
-5.6493
-6.21171
-6.21171
52.3588
52.3588
60.1394
60.1394
989.373
989.373
-4.77077
-4.77077
3.99711
3.99711
-4.76716
-4.76716
-4.41881
-4.41881
-7.44621
-7.44621
560.224
560.224
762.39
762.39
146.011
146.011
701.706
701.706
-4.76947
-4.76947
-6.2527
-6.2527
-4.89753
-4.89753
4.58584
4.58584
5.12991
5.12991
59.6846
59.6846
-4.50864
-4.50864
-6.26335
-6.26335
-4.60998
-4.60998
-0.0206557
-0.0206557
-6.48049
-6.48049
-6.44832
-6.44832
-4.73927
-4.73927
18.0904
18.0904
3.26732
3.26732
-7.65531
-7.65531
22.5903
22.5903
1246.34
1246.34
-4.93774
-4.93774
9.6367
9.6367
-3.46382
-3.46382
-6.32784
-6.32784
17.1226
17.1226
59.434
59.434
-4.36052
-4.36052
-4.76182
-4.76182
-4.75367
-4.75367
-5.20916
-5.20916
52.5796
52.5796
-6.29909
-6.29909
-4.67897
-4.67897
1074
1074
2.38361
2.38361
-6.25015
-6.25015
999.588
999.588
-6.03295
-6.03295
-6.93108
-6.93108
-4.86947
-4.86947
3.77159
3.77159
776.901
776.901
59.4845
59.4845
-7.00593
-7.00593
-0.747193
-0.747193
2.44902
2.44902
-4.74816
-4.74816
38.7
38.7
46.6505
46.6505
-5.2582
-5.2582
-6.24795
-6.24795
-5.26718
-5.26718
23.3792
23.3792
90.0879
90.0879
-5.66256
-5.66256
32.081
32.081
21.5059
21.5059
3.53389
3.53389
49.5977
49.5977
-5.6055
-5.6055
-6.23961
-6.23961
1119.54
1119.54
54.3508
54.3508
3.43158
3.43158
-4.72593
-4.72593
-7.22735
-7.22735
761.329
761.329
169.729
169.729
888.641
888.641
-4.68757
-4.68757
-4.75532
-4.75532
10.0784
10.0784
-4.72157
-4.72157
-7.98188
-7.98188
-1.2931
-1.2931
27.843
27.843
2.45485
2.45485
-5.14569
-5.14569
-4.74236
-4.74236
1065.1
1065.1
-4.95497
-4.95497
22.8612
22.8612
-4.74448
-4.74448
-6.35576
-6.35576
-5.91626
-5.91626
634.974
634.974
1212.54
1212.54
-4.79089
-4.79089
-4.81364
-4.81364
0.123308
0.123308
6.43347
6.43347
-8.12857
-8.12857
-6.34947
-6.34947
-6.23432
-6.23432
951.564
951.564
-4.75419
-4.75419
938.428
938.428
-4.44026
-4.44026
-6.33226
-6.33226
-5.15673
-5.15673
-7.14174
-7.14174
2.4366
2.4366
-4.31223
-4.31223
1250.31
1250.31
-4.70875
-4.70875
-4.73196
-4.73196
-0.614154
-0.614154
-4.74387
-4.74387
3.31225
3.31225
-6.92368
-6.92368
661.017
661.017
95.9473
95.9473
-6.81515
-6.81515
16.9153
16.9153
-7.18653
-7.18653
-4.74096
-4.74096
354.737
354.737
2.82903
2.82903
696.919
696.919
-0.68265
-0.68265
953.36
953.36
-7.45623
-7.45623
-4.56217
-4.56217
18.8271
18.8271
3.49998
3.49998
8.41722
8.41722
556.503
556.503
-4.69753
-4.69753
17.7562
17.7562
-4.73111
-4.73111
1040.62
1040.62
-1.96338
-1.96338
874.898
874.898
597.543
597.543
597.543
58.9389
58.9389
16.6258
16.6258
-4.74277
-4.74277
3.25448
3.25448
150.585
150.585
133.085
133.085