/*--------------------------------*- C++ -*----------------------------------*\
  =========                 |
  \\      /  F ield         | OpenFOAM: The Open Source CFD Toolbox
   \\    /   O peration     | Website:  https://openfoam.org
    \\  /    A nd           | Version:  8
     \\/     M anipulation  |
\*---------------------------------------------------------------------------*/
FoamFile
{
    version     2.0;
    format      ascii;
    class       surfaceScalarField;
    location    "0.55";
    object      phi;
}
// * * * * * * * * * * * * * * * * * * * * * * * * * * * * * * * * * * * * * //

dimensions      [0 3 -1 0 0 0 0];

internalField   nonuniform List<scalar> 
2805
(
-0.000145149
0.000100247
4.49021e-05
8.91626e-05
-0.000234312
-0.000654171
-0.000711012
0.00136518
0.000350405
-0.00100458
5.25859e-05
3.65766e-05
-0.00108738
0.00143779
2.08811e-05
-0.00110826
-0.00157917
0.00160005
-0.000309357
-0.00126981
-0.00133687
0.000625855
-0.00209039
0.00178103
-0.000192394
-0.001898
-0.000733147
-9.07809e-05
0.000823927
-0.00202502
0.00183262
-0.000939257
0.00142836
-0.000489102
0.00037085
-0.00131011
0.000360139
-0.00109329
-0.000520206
-0.00150481
0.000315248
-0.000215001
-0.00201998
0.00149977
1.27057e-05
-0.000343496
0.00033079
-0.00144375
0.00309652
-0.00165277
-0.00167216
0.000120872
0.00155129
-0.00072788
-0.0012921
-0.00255918
0.00111543
-0.00324291
0.00173106
0.00151185
-0.00201323
-0.00122968
0.00128287
-0.00118055
-0.000102327
-0.000364764
0.000690371
-0.000325608
-0.000706935
0.000172219
0.000534717
-0.0001798
-0.00149236
-0.0017319
-0.000827274
0.000143916
7.45229e-05
-0.000218439
-0.00109074
0.00145088
0.000136329
0.00114655
-0.00230202
0.00242289
-0.00213431
0.000402402
-0.000692387
0.000327623
-0.000246972
-0.000459964
-0.00127054
0.000582496
-0.0027168
-0.000678257
0.000690962
0.00231356
0.00205961
-0.000508321
0.000328057
0.000391634
-0.000719692
-0.000674013
0.000245493
0.00042852
-0.000270036
0.000124372
0.000145664
0.000516837
0.000415753
-0.00093259
-0.000206114
-0.000655763
0.000861877
6.61054e-06
7.95801e-05
-8.61906e-05
0.00082773
-0.00275788
0.00193015
-0.000769038
0.000942295
0.00215422
0.0020931
-0.00126537
-0.000512397
0.000561322
-4.89252e-05
-0.00120054
4.52112e-05
0.000844895
0.00169487
-0.000849976
3.48471e-05
0.000894231
-0.000929078
0.00107817
0.000981439
-0.000240233
0.000611083
0.00208181
-0.00100364
-8.77262e-05
-0.000421828
0.000509554
0.000446462
0.00164664
-0.000395324
0.000811078
0.000430416
-6.12017e-05
-0.000369214
-0.00067011
-0.00163191
1.63588e-05
-0.00074461
-0.00201327
0.000651644
9.0096e-05
-0.00074174
0.000279963
-0.000520195
-0.000334698
-0.000533068
0.000705287
8.27247e-05
-0.000615793
0.00035066
-0.000608997
0.000258337
0.000479216
-0.00087454
-0.000576113
0.000658838
-0.00105171
0.000119124
0.0013372
0.00147299
-0.00183771
0.000364723
0.000624683
-0.00263791
-0.000778683
0.000338595
0.000440088
-0.000463286
0.00011979
0.000188818
0.00112483
-0.00179494
0.000514323
0.00185398
-0.000425626
-0.000199503
0.000521977
0.000129667
0.00189297
-0.00146255
-0.00234518
0.00296987
-0.000266904
0.000355681
-0.000668362
0.000312681
0.000589958
-6.79812e-05
0.000367666
7.8796e-05
-0.000315315
0.000794531
0.00173696
-0.000263972
-0.00160248
0.00163732
0.000198795
0.000151865
-0.00106525
0.00145076
-0.000385502
0.000126672
-0.00227642
0.000673944
-0.00032114
-0.00202404
0.000394522
-3.88411e-05
-0.00123007
0.000486944
0.000743122
-0.00119988
-0.000188283
0.00138816
-0.000237531
0.000632052
-0.000590926
0.00148516
-0.000935266
-0.0010447
0.000729382
0.000902799
-0.00088644
-0.000639801
0.000666438
-0.000721984
5.55452e-05
-0.000288053
-0.000763661
-0.000181687
0.000301477
0.000299929
0.000583138
-0.00189324
0.00119131
0.00189113
-0.00308245
-0.00116259
-3.86525e-06
0.000192683
-0.00135609
0.00131691
3.9186e-05
0.00041037
-5.20191e-05
6.5896e-05
-0.000127097
0.000481477
0.000723735
-0.00120521
-6.59738e-05
-0.000543023
0.00040846
-0.000984574
-3.24674e-05
-0.000443128
0.00107857
-0.000635444
-0.00012867
-0.000916027
0.000250882
-0.000459044
0.000479832
-2.07884e-05
-0.000112244
-0.000642366
0.000983001
-0.00102184
0.00107472
-0.000747099
0.00113799
-0.00186587
0.000506745
0.0013254
0.000345858
-0.0007008
0.0007008
0.000754546
-0.000754546
-0.00132267
0.0016226
-0.000662747
0.000219619
0.000243947
0.000288891
0.000443569
-0.00103449
0.00319126
-0.00199994
-0.000216581
0.000555175
-0.00135609
-0.000223582
0.000157609
-0.00149988
0.00175076
0.00011512
-0.000385668
0.0011094
0.00119252
0.000124391
-0.0011326
-0.00105262
0.000923949
-0.000547877
0.000578069
-3.0192e-05
-0.000670094
-5.18893e-05
-0.000200707
0.000122714
-0.00136616
1.00653e-05
-0.000356155
0.0004436
-8.74445e-05
-0.00022221
0.00140323
-0.0017889
0.000415139
0.000777378
-0.000325564
-0.000837029
-0.00105431
0.000289031
-0.000214508
-0.00171253
0.00182765
-0.000623655
-0.000606412
0.00131618
0.000124862
-0.000340509
-0.000335562
0.000676071
-0.000135378
-0.000631697
-0.000110044
0.0019003
0.00052259
-0.00188571
0.00200842
0.000767116
0.000910819
-0.00167793
-0.00172334
0.00230648
-0.000949106
0.000131205
0.000817902
-0.000326951
0.00173019
9.08361e-05
-0.000746599
0.000336639
-0.000212267
0.000249169
-0.000472751
0.000766105
0.00155282
-0.00231893
-0.00124159
-0.000836492
0.000784602
-0.000275135
0.000519082
-0.000112484
-5.75875e-05
-0.000995031
-5.8058e-05
0.00194165
-0.0022686
-0.00136616
0.000629214
0.00193293
-0.00256215
-0.000894944
0.000554435
7.9348e-05
-0.000974292
-0.000568302
0.00112274
0.000536107
0.00108597
-0.00130818
0.00195343
-0.00206591
0.00153322
-0.00221187
0.00215381
-9.98178e-05
0.000348986
0.0004465
0.000479832
-0.00138602
1.98604e-05
0.000333849
0.000620424
-0.00205831
0.00143789
-0.000335636
0.00227728
0.00218204
0.000895405
-0.00125273
0.0016963
-0.000610697
-0.000258444
-0.000584458
-0.000400115
0.000498706
-0.000107789
-0.000702929
-0.00163451
0.00225494
-0.000284877
-0.000591262
0.00252419
-0.00116044
0.00110285
-6.28287e-05
-0.000817344
0.000880173
0.00210387
-0.0024395
0.00068135
-0.00124965
0.000540534
2.07884e-05
0.000374011
-0.0014156
0.00104159
0.000990167
0.00196188
-0.00255314
0.000578069
-0.000161911
-0.0018964
-0.00246943
0.00221098
0.00128722
-0.00199015
-0.00138602
0.000811435
-0.00253478
0.000322876
0.00121035
-0.00162854
0.00146663
0.000382036
-0.000481854
0.000361442
3.0192e-05
0.000378519
0.00207707
-0.00236195
0.000919394
-0.000290269
-0.000686484
-0.00106224
-0.000938951
-0.000447068
-0.000405322
0.00250919
-0.000974335
-0.000369948
-0.000871644
-0.000237561
-0.00139695
-0.000634045
0.0021459
-0.00130615
-0.000153243
0.0014594
-0.000475586
-0.000392358
0.0012546
-0.000981373
0.001746
-0.000429817
0.000605137
-0.00184408
0.00101681
-9.31594e-05
-0.000522633
0.000324592
0.000366371
5.97641e-05
-0.000666176
-0.000249632
-0.000555136
-0.000694506
0.00137586
-0.000572736
0.000214012
0.00139041
0.000597948
-0.00198836
0.000747287
-0.000373276
-0.00077453
-0.00106319
-0.000529324
-0.00059238
0.00255426
0.00077643
-0.000259485
0.000532242
-0.000938951
0.000477373
0.00206583
-0.00247116
3.3412e-05
0.000159271
-0.000132456
-0.00102798
-0.00107857
0.000139621
-0.00276395
0.00237159
-0.000983279
0.00127244
-0.00225381
-0.000200792
-0.000259172
0.00185225
-0.00244463
-0.000705466
-0.00119094
0.000215286
0.00022206
0.00022154
-0.00172137
0.00148381
-0.00041906
0.000801097
-0.000524694
-0.00210242
-0.00121372
0.000274171
-0.00190272
0.000123195
-0.00137593
0.00222324
-0.00275256
0.0010822
0.00138874
-0.00247094
-0.000325445
0.000650036
-0.00124109
0.00151526
0.00123717
-0.000827481
0.000727505
0.00140263
0.00178863
-0.000456867
0.0025227
0.00272098
-0.0022427
-0.000478275
-0.00136498
0.000498483
-0.000423334
-0.000540716
-0.00116706
0.00185395
-0.000293951
0.000758529
-0.00145304
0.0007947
0.000155138
6.69219e-05
0.00132806
-0.00255775
0.000155967
-0.000994732
0.000838765
0.00119876
0.00168015
-8.51828e-05
-0.00170074
0.00156828
0.000950861
-0.000307824
-6.13899e-05
0.000683637
0.00203734
-0.00125279
0.000181936
-0.000582051
-0.000619958
0.00247221
-0.000181791
0.00112881
-0.00229587
0.00200187
-0.00245874
-0.00145911
-0.000661377
-0.000517191
0.00313453
-0.0020191
0.000462228
-0.000881289
-0.000244021
-0.00147735
-0.00146875
0.000948554
0.00069997
-0.000827068
0.00253859
-0.00113597
0.00311636
-0.000802803
-0.00113324
0.0010458
0.00101952
-0.00221045
8.51393e-05
0.000140701
-0.000827185
-0.000403518
0.000909743
-0.000506225
-0.00297196
0.00243125
-0.000429786
0.00166695
0.000474129
-0.000106464
0.00159665
-0.00221661
-0.00177455
-0.000327874
-0.000883198
-0.000185915
-0.00018736
0.00127228
0.000694698
0.000891833
-0.000918279
0.00167681
-0.000429959
0.00243183
-0.00134235
0.000521582
-0.00176267
-0.000464979
0.00208255
-0.00196436
0.0027758
0.00313092
-0.000161055
0.000110044
-0.000162063
-0.00201857
-0.00196645
0.00299863
-0.00198183
0.000960323
-0.000260352
-0.000508427
-0.000525474
-0.000789602
0.00204421
-0.000502174
-0.000933174
0.00145476
-0.000340697
-0.00049374
0.00249688
-0.00160117
0.00311522
-0.00243158
0.00173459
0.000620723
-0.000682112
0.00172827
-0.00307062
0.00283146
-0.000685564
0.000979529
-0.000615252
-0.00108549
-0.00094469
-0.000291871
-0.000370877
0.000216407
-0.000741101
-0.000640624
0.00110285
6.30496e-05
0.000415139
-0.000310335
0.000128544
0.000254693
-0.00139685
0.00114215
-0.000206345
0.00202866
-0.000658989
0.00225564
0.000627644
0.00248757
-0.000332065
-0.0026399
0.000609814
0.00193499
-0.00236495
-0.00127766
0.00140086
0.000356021
-0.00113055
0.00193178
-0.00225965
0.00210256
-0.000471288
-0.00163127
0.000644199
-0.000278676
0.000785274
-0.00170355
-0.000808492
0.000886236
0.00310055
-0.00182827
0.00108296
-0.00196616
-0.000460698
-0.000904281
-0.000711943
0.000452772
0.00324185
-0.00235002
0.0023829
-0.000636899
-0.000497695
-0.000638712
0.00105534
0.00329446
-0.00269891
-0.000595551
-0.000730467
0.00222184
-0.000679705
0.000357615
0.000545118
-0.000902733
-0.0024608
0.00111873
0.000957223
0.00312373
-0.000626849
-0.000517939
0.000818389
-0.000596849
0.000488881
-0.000749234
0.00123483
-0.00189382
-0.000365644
-0.00073635
-6.33714e-05
-0.000430368
0.000340026
0.000810269
0.00200476
-0.00190317
0.00128792
0.00243816
0.00181791
0.00070451
-0.00163768
-0.00239608
0.000377511
0.00268053
0.000613932
-0.00166689
0.00115846
0.000322295
-0.000983672
0.00325856
-0.00227903
-0.000942555
0.00144104
0.000680584
0.000642032
-0.00128266
-0.000745483
0.000221609
-0.000427954
-0.000353258
0.00228825
-8.92098e-05
-0.000708356
0.00325897
-0.00123031
0.00334631
-0.00271867
0.000275346
-0.000569297
-0.000692337
-0.00128611
0.00207138
-0.00050489
-0.000901137
0.000566439
-0.00260764
0.00227557
0.000981125
-0.000492244
-0.00206548
0.00112079
-0.00232542
0.00159495
-0.000905951
-0.000527625
0.000908548
0.00143069
0.00296438
-0.000742538
0.000543109
-0.00250747
0.00204839
-0.000993049
-0.00148868
0.00100765
0.00141149
0.000647403
-0.000464064
0.00171577
-0.00199445
0.000527459
-0.00133595
-0.000685759
-0.000604926
0.000107231
0.00233753
0.000113127
4.20109e-05
-0.00025039
-0.00205605
-0.00074633
0.00334709
-0.00222836
-0.00020705
-0.000695721
-0.000581943
-0.00251403
0.000254382
0.003555
-0.00111684
0.00337816
-0.00256789
0.00113342
-0.00181312
0.000369222
-0.000894697
-0.000603092
-0.00103529
-0.000548378
-0.00045765
-0.000287833
-0.000885604
0.00106806
-0.00073984
-0.00241463
-0.000907021
0.00336575
-0.00275181
-0.00213652
0.000502476
-0.00114119
-0.000504268
0.00188345
0.00173237
0.000359432
-0.000700129
-0.000806061
0.0017875
0.00232469
0.00171457
-0.00206782
-0.0026724
0.00335298
-0.000611314
-0.00199632
0.000659489
-0.00129163
0.00241647
-0.000721579
0.00136361
-0.000475206
-5.24187e-05
-0.000770002
-0.00186292
0.000576811
0.00347278
-0.00204209
0.00335915
-0.0024506
3.70347e-05
7.60925e-05
-0.000388324
0.00172552
-0.000371879
0.000830063
-0.0015224
0.00247213
-0.00106064
-0.000495798
-0.000216145
-0.000338128
-8.36998e-05
-0.000694591
0.000202347
-0.0010754
-0.000827769
0.00172959
-0.00117706
0.000271107
-0.00141399
0.00332527
-0.00267787
0.00341867
-0.00108113
0.000810929
0.00109424
0.0019772
-4.70463e-05
-0.000540259
0.00058227
-0.000448365
0.00124442
0.000693346
-0.000479974
-0.00106983
0.000920624
-0.00226623
-0.000481196
0.000459885
-0.000220452
0.000791265
-0.000505887
0.000703255
0.00230183
-0.000829386
-0.000205908
0.00048039
-0.000846034
-0.00043264
-0.000452965
-0.0015245
0.00204709
0.000895803
0.00158497
-0.00183536
0.0027118
-0.000820664
0.00350254
-0.00243449
-0.00168147
0.000995707
1.66206e-05
-0.00111722
-0.000391115
0.00203775
0.00139918
-0.00220233
0.00020788
0.00129433
0.00124427
0.000699821
-0.00130291
-0.000450269
0.00401773
-0.00169304
0.00057346
-7.9265e-05
-0.000475871
0.00158609
0.00167848
-0.000228155
-0.000907846
-0.00124645
0.000342173
-0.00074701
0.00212592
0.00122706
0.000405335
6.87943e-05
-0.00194795
-0.000191424
0.00190599
-0.000482362
0.000144234
0.00330879
-0.0026493
0.00124267
-0.000905541
0.000528692
-0.00103358
-0.000458588
-0.00180764
0.000344013
0.000950315
0.00197564
0.000719745
0.000891961
-0.000651477
-0.000837205
0.00105194
0.000832964
-0.000630617
-0.00056118
0.0008432
-0.00156478
0.000472161
0.00156559
1.87105e-05
-0.00010241
0.00116212
-0.00166639
-0.000441367
-0.000809925
0.00365844
-0.00241402
-0.00244354
0.00167354
-0.000209865
-0.000899744
0.00199398
-0.000848502
0.0013501
-0.00177704
0.00258796
-0.00194127
0.00103425
0.0028257
-0.0010961
-0.000366282
0.000989953
0.00063092
0.000877497
0.00174456
0.00027813
-0.00181011
0.000749466
-0.000360282
-0.00110482
-0.000890081
-0.000179746
0.00324347
-0.00245221
0.00385248
-0.00155065
-0.000948942
0.00025322
-0.00275497
0.000618452
0.00122395
-0.00200827
0.00255138
-0.00110685
0.00182666
-0.00113331
-0.00109599
0.00172707
0.00114735
-0.000641931
-0.000475288
0.000122993
0.00110407
-0.000366004
0.00215944
0.000934762
-0.00245194
-0.000522139
0.00192131
-0.000219738
0.000937485
-0.00144337
-0.0010949
8.40777e-05
0.0040218
-0.00204616
-0.00094556
0.00279836
-0.0022249
0.000594173
0.00313406
-0.00208212
0.000685387
-0.00116658
-0.000437396
0.00144505
-0.00203523
-0.000365428
-0.00242692
-0.00228092
0.000866932
-0.00025235
0.00193083
-0.00147078
0.00236274
-0.00193039
9.50376e-05
-0.00172251
-0.000905741
0.000275124
0.000166304
-0.000913315
0.00160777
-0.000394286
0.000161669
-0.00106951
0.000226897
-3.36275e-05
-0.000193269
0.00149971
-0.00172786
0.00147184
-0.000585647
-0.00165398
0.000292927
0.00298662
-0.00124206
0.00194965
-0.00247876
0.000530815
0.00111719
0.000613962
-0.000985841
0.000681854
0.00309824
-0.00187429
0.000852788
-0.00129416
0.000877076
0.000112877
-0.00188613
0.00079003
-0.000374734
-0.000366314
0.0019524
-0.00113667
-0.000878747
-0.000226075
0.00143597
-0.00016668
0.00294508
-0.00231416
0.00166505
0.00166896
-0.00105849
0.00017967
4.72269e-05
0.00376506
-0.00160561
-0.000444818
-0.00065117
-0.000256366
0.00136044
-0.00186031
-2.7438e-05
6.085e-05
-0.000232073
-0.00185664
0.00100814
-0.000348196
-0.00105052
0.00219787
-0.00124667
0.000162063
5.32231e-05
-0.000139492
0.00170508
-0.00129219
0.00213539
0.00118918
-0.00154946
-0.000920106
0.00272339
-0.000299174
5.7851e-05
0.000241323
0.00101612
-0.000739437
0.0017189
-0.000751646
0.000294006
0.000979015
-0.000703891
0.000620711
0.00156452
0.000272558
-0.00136745
-0.000313795
0.000549879
0.000162245
-0.000712124
-0.00160507
-0.0010458
0.00044895
0.00272249
-0.00212832
0.00131222
0.000720181
-0.000254197
0.00322397
-0.0016162
-0.00173015
0.000781213
-0.000151348
0.000280464
-0.000460218
0.000179754
-0.000489541
-0.000692787
0.000476642
0.00181291
9.2523e-05
-0.000384394
-0.000877629
0.000461651
-0.000682103
-0.000796956
0.000354084
-0.00236236
0.00103791
-0.00140334
0.00134968
-0.00129127
0.00240846
0.00261933
-0.00118336
0.00252194
-0.00184009
-0.000663787
0.00213563
0.00185596
-0.00106593
-0.00199229
0.00104673
0.000613899
0.000278966
0.000303303
4.1654e-05
-0.00110015
0.000988877
0.00177279
-0.00167775
0.000408325
0.00101371
0.00153409
-0.000808018
0.000456891
0.000741105
-0.00110711
-0.00170241
0.00130812
0.000152079
0.00257588
0.000584944
-0.000794809
-0.00164054
-0.0012669
0.000130233
0.0020782
-0.00154739
-6.53757e-05
0.00143212
-0.0014379
0.00279833
0.000355691
-0.000609516
0.00231196
-0.00129583
-0.000256244
4.49305e-05
0.000550043
0.00043902
-0.000989062
-0.000972895
-0.00112228
0.00307193
-0.00175078
0.00284322
-0.00112432
-0.000710442
0.000262076
0.000872305
-0.0012205
0.000516154
-0.000315984
-0.000984152
0.000810122
-0.00173023
0.000393625
0.000670669
-0.000890407
0.00143703
-0.00160371
0.000213591
-0.000549879
0.000618674
-0.000991021
0.00265607
-0.000995323
0.00230754
-0.00203599
0.0013321
-0.000495624
0.00216459
0.00122702
-0.00192011
-0.00116234
0.00297775
-0.00235704
0.00141645
-0.00235403
0.000493717
0.00164001
-0.00209267
0.00134102
-0.000112432
0.000471869
0.00102987
-0.00176931
-0.000557333
0.00141314
-0.00221374
0.000967065
0.00100909
-0.00132289
-0.00064638
0.00136656
0.00133617
-0.000722266
0.00202942
-0.000679736
0.000152804
-0.000244736
-0.00154839
-0.000487604
0.00122848
-0.00148268
0.0010393
-0.0010393
-3.6788e-05
-0.000618674
0.00149617
-0.000941011
-0.000124915
0.0016428
-0.000629082
0.00037386
-0.00252366
0.00108576
-0.000810779
0.000733582
-0.00213672
0.00125909
0.00167605
-0.00185375
0.00168361
-0.00248056
-0.000759157
0.00229324
-0.000234803
-0.00116701
0.000460337
-0.00126835
0.000454092
0.0002625
0.000145825
-0.000572761
0.00213728
0.000833823
-0.0010659
-0.000518519
-0.00183787
-0.00063981
0.000574769
-0.000113118
0.00264024
-0.00218335
0.00132948
-0.001939
0.00159183
0.000518475
0.00154838
0.00267639
-0.000174856
0.00208091
-0.00103242
0.00265992
-0.0016275
0.000514091
-0.000120465
-0.000118018
-0.000211408
-8.21059e-05
-5.32231e-05
-0.00014628
-0.000719675
-0.000442644
0.000526721
0.00200969
-0.000804617
-9.71584e-05
-0.000224683
-0.00150547
0.00126385
-3.6829e-05
-0.000400745
-0.0015416
-0.000409062
-0.000428285
9.91179e-05
0.000372751
0.00115014
-0.00140638
-0.000532242
0.000504804
0.00211882
-0.00176473
0.00190947
-0.00155378
0.000231721
0.001639
-0.00159407
-0.00224546
0.00126131
0.000283201
-0.00238954
0.000748996
-0.000834185
0.00224732
-0.00012414
0.00162906
-0.000207471
0.00202038
0.000350867
-0.000198063
0.000584113
-0.00196571
0.000418316
-0.00068445
0.00232446
0.000229553
-0.000354468
-0.00147199
-0.000492713
-0.000233799
3.52975e-05
-0.000138529
0.000138529
0.0019298
0.00212213
-0.00267946
0.00160879
-0.000278215
0.000659916
0.000948656
-0.00119339
-5.65841e-05
-0.00142247
-0.000572798
0.00130638
4.10309e-05
0.000220049
-0.00026108
0.00141287
-0.0015253
0.0018422
-0.000172749
0.000219966
-0.00103074
-2.13475e-05
-0.00098637
-6.91297e-07
0.000519167
0.00414429
-0.00305853
0.00152224
-0.00216205
-0.000503481
-0.00274371
0.0022561
-0.00299634
0.00467239
-0.000499709
-0.000358435
0.00107105
-0.00130585
0.000488531
-0.000627059
-6.9813e-05
-0.000715326
-0.00149617
0.00320125
-0.000487142
-0.000200048
-0.000416756
-0.000722589
0.00227097
-0.00241777
0.00125077
0.00429817
-0.00384408
-3.75206e-05
-0.00327801
0.00535892
0.0021062
-0.00262472
0.00047657
0.00152473
-0.00282469
0.00202007
3.85834e-05
0.00026472
0.00128417
-0.00145902
-0.00389994
0.00590964
0.0013168
0.000938136
-0.000739095
0.00233092
0.00237334
-0.00277408
0.000280945
-0.00164802
0.00223213
-0.000891238
0.000398525
0.00158536
0.00118962
-0.00140102
-0.00464726
0.00627632
-0.00011724
-0.0010893
-0.00161336
-0.000180567
0.00259305
-0.00281774
0.00110218
-0.00145665
0.00238961
-0.0028179
-0.000320672
-0.00115646
7.14387e-05
0.0041824
-0.0038992
-0.00553162
0.00619153
-0.00139609
0.00111788
0.00257189
-0.00298095
-0.00034164
0.000186181
-6.42766e-06
-0.000407135
9.11509e-05
0.00114796
0.00167595
-0.00030612
-0.000122214
-0.00597947
0.00595812
0.00139438
-0.000122344
-0.0038531
0.000794563
0.00240275
-0.00029655
-0.000340959
0.0017601
-0.000876928
-0.000680831
0.00228962
0.000445079
-0.000568589
0.00145897
-0.00260358
0.00118111
-0.00025368
0.00175888
-0.00152716
0.000152995
3.31866e-05
-0.00614778
0.00594773
0.00159014
-0.00281451
0.00182814
0.00191561
-0.00240275
0.000164807
0.00155836
-0.00152306
-0.000246443
-0.00200518
0.00126237
-0.00308248
0.00304496
0.00187822
-0.0014599
-0.00242458
0.000659842
0.000324434
0.00113014
-0.000116235
0.0013027
-0.00147545
0.00248661
-0.00290336
0.000744704
0.00272715
-0.00308558
-0.000820601
0.000315531
-3.74012e-05
0.00033832
3.30638e-05
-0.000235104
0.000384349
0.00154546
0.00271527
0.000212062
-0.00154578
0.000271442
-0.000850348
0.00434253
-0.00386596
-0.00135281
0.00105819
-0.000246009
-0.000794433
-0.00289429
0.00180499
0.00142917
-0.00149898
-0.00243615
0.000979497
-0.00203762
-0.000287478
-0.000189653
-0.00185106
0.000379074
-0.000163715
0.00168845
-0.006463
0.00612136
0.00120349
0.00132309
-0.00177641
-0.00157012
-0.000253804
0.00509724
-0.00394928
0.00246628
-0.00239484
0.000443332
-0.0042711
0.00566548
0.000119587
0.00159638
-9.83265e-05
-0.00257199
0.000958626
-0.00453228
0.00365535
-2.98529e-05
-0.000472602
0.00205796
-0.00281364
0.00165718
0.00181702
-0.000515272
-0.0048198
0.00627877
0.000461098
0.00286035
-0.00316647
-0.00320125
0.00522163
-0.00306687
0.00249828
-0.00555291
0.00681529
-0.00148732
0.000530928
-0.000644046
0.00284881
-0.00309525
-0.00633088
0.00707558
0.00015744
-9.65896e-05
-0.00115299
0.00471132
-0.00355833
0.00464749
-0.00385292
0.00140145
-0.00152367
0.000190301
-0.000985501
-0.00360737
0.000789629
-0.00688718
0.00709925
0.00266591
-0.00300687
0.000644046
-0.000741205
-0.000530928
0.00041291
-0.00700669
0.00615635
-5.45531e-05
-0.00139088
-0.000225236
6.43132e-05
0.00152583
0.000826137
-0.00721794
0.00702829
-0.00429079
0.00473587
-0.000865345
0.000741204
-0.00437413
0.0023365
-5.57803e-05
0.000222003
-0.000166223
0.00462186
-0.00428354
0.00382937
-0.00284987
0.00259159
-0.00288814
-0.00256913
0.00175276
0.00274243
-0.00297754
0.000549879
-0.00278048
-0.000885331
0.00177643
-0.00145199
0.000845687
-0.00573518
0.00395877
0.00143453
0.000845353
-0.00309418
0.00229975
0.000249268
0.00164418
-0.00147937
0.000198409
0.00301354
-0.00330101
0.000725854
-0.000921929
-7.3994e-05
-0.000400961
0.00281043
-0.00305644
-0.00284504
0.00149223
0.00048441
0.000698204
-0.00207983
0.000121115
0.00153487
-0.0015018
-0.00148928
0.00354724
0.000188399
-0.000595897
0.00122599
0.00469284
-0.00424951
-0.00737109
0.00685582
0.000921929
-0.00103917
-0.00746319
0.00597587
-0.000118694
-0.00041291
0.000179111
7.16471e-05
5.81133e-06
-7.74584e-05
-0.00015293
3.58816e-05
-0.00118787
-0.00277861
-0.000228263
-0.00146595
-0.00183419
0.000374289
-0.0011841
0.00288641
-0.00314022
6.67001e-05
0.000204742
0.00345475
-0.00326445
-0.00314627
0.00103917
-0.00116151
-0.00130685
-7.16471e-05
7.9265e-05
-7.61791e-06
0.00085962
0.000957401
0.000359502
0.00146138
-0.00149124
-0.000342805
-0.00145512
-0.00435632
0.000503394
0.000331069
0.00238545
-0.000187014
0.00336976
-0.00342431
-0.000126238
0.00011981
-3.59985e-05
-0.000145712
-0.000167102
0.000409307
-0.00304814
0.00206264
0.000379551
0.00422658
-0.00343695
-0.00498672
0.00581286
-0.00522163
0.00676709
-0.00745889
0.00657355
-0.00533249
0.00248262
-0.0064596
0.00389047
0.00116151
-0.00127775
-0.00543755
0.00628324
-0.00299599
-3.5087e-05
-1.45653e-06
-0.000179111
-0.00309608
0.00269512
0.00033957
-0.000247047
-0.00250084
-0.00596157
0.00668743
0.00491486
-0.00406951
-0.000170029
-0.00274365
0.00135277
6.8746e-05
0.00535464
-0.00465644
0.00300827
-0.00323351
-0.00646977
0.00695418
-0.00763919
0.00555936
0.000184005
-0.000142975
-6.22852e-05
0.00280846
-0.00303672
-0.00687097
0.00705937
0.00216214
-0.0015023
0.00275871
-0.00100595
-0.000748388
-0.000283445
0.000354115
-0.00312833
0.00253243
-0.000603066
0.00166592
-0.00141665
-5.32231e-05
0.0046927
-0.00325817
-0.00166332
-0.00712715
0.00700846
0.00033142
-0.00125142
0.00157461
0.000665349
0.00127775
-0.00137608
0.000186544
-0.00743087
0.00612403
0.00154643
-0.00176902
0.000317026
-0.000287623
-0.00285857
-0.000178153
-0.000433211
0.00497515
-0.00447175
-0.000131944
0.000367921
0.00059202
0.00274287
-0.00292988
0.00318931
-0.00334224
-0.00348797
0.00444537
5.92725e-05
-0.00297538
0.00178751
-0.00720252
0.00685972
0.00384008
-0.00348058
0.000375302
0.00044895
0.000962128
0.000321666
-0.000115705
0.000217654
0.00286499
-0.0030321
0.00011813
0.00158383
-0.00146271
0.00018338
-3.03854e-05
0.000635444
-0.000295874
0.000415766
0.00283253
-0.00297824
8.32187e-05
0.000149753
-0.00085732
0.00508388
-0.00147765
-0.00360623
-0.00442911
0.00476018
-6.77842e-05
0.000318712
-0.00139473
-0.00655157
0.00355558
8.2026e-05
0.00368812
-0.00130267
0.00467195
-0.00426264
0.00158023
-0.00154435
-0.0074384
0.00493757
-0.000912742
-0.0026611
-0.00456988
0.00494943
0.00268217
0.000351592
8.74273e-05
0.00292662
-0.00309665
0.0028253
-0.00300345
-0.00676709
0.00799308
-9.7348e-05
0.00137608
-0.00145007
0.00560361
-0.00312099
-0.00309015
0.00234177
0.00347248
-0.00340373
-0.00187904
0.00280971
-0.00292542
-0.000194068
-0.000113249
0.000360163
-0.000176158
-4.42058e-05
0.00101437
-0.00304119
0.00275357
-0.000557719
-0.0048879
0.00145095
-0.00718613
0.00658307
0.00234544
-0.00719199
0.00552867
0.000113116
-0.00261844
0.0011525
0.00287163
-0.00296898
8.89952e-05
-0.000105478
-0.00473735
0.000265599
-0.00306
0.00262679
0.00108529
-0.000500532
-0.00106796
-0.001663
0.000246353
-0.00079966
0.00463274
-0.00396739
0.00285052
-4.08136e-05
0.000130245
-0.000490121
0.000712124
-0.000215889
0.00289809
-0.00301134
-5.37877e-05
-0.000326416
0.00434127
-0.00337914
-0.000152929
-0.00134598
0.00024284
0.0030322
-0.00316415
-0.00126568
0.000190299
0.000860694
-0.00334147
-0.00503598
0.00158834
-0.0014018
-0.00346137
-0.00282387
0.00157246
-0.000921929
-0.000164345
0.00021208
-0.00289358
0.00285277
0.00378445
-0.00336868
-7.0885e-05
0.000411549
-6.44454e-05
-0.00703819
0.00618087
-0.000306435
-0.00199671
0.000541594
0.00300597
-0.00305976
-0.00302087
0.00246315
-0.00151236
0.00145007
7.16471e-05
-0.00581969
0.00451701
0.000138136
-0.00028111
0.000112391
-0.00137431
-0.00687293
0.00421183
-0.00302326
0.00211051
0.00617132
-0.00261574
0.00294952
-0.003055
-0.00068149
0.000380713
0.00463324
-0.00318229
-0.000179111
-0.00103636
-0.000394081
0.000274161
-0.000136025
0.00305033
0.000370092
-0.00193536
-0.00513751
0.00545622
0.00451252
-0.00349815
-0.00545622
0.00582414
0.00317909
-0.0032233
-0.00799308
0.00805235
-0.000101441
-0.000144515
0.000114129
-0.00582414
0.00619945
-0.00243084
0.000928546
0.000295874
-0.000182758
-6.18159e-05
-0.00672845
0.0048494
-0.00011813
8.30431e-05
-0.00619945
0.00652111
0.00301735
-0.00308824
-0.00652111
0.00673877
0.000125627
-0.000504804
0.000134453
0.000370351
-0.00673876
0.00682198
-0.000455121
-0.000231511
0.000388951
-4.24077e-05
0.00299203
-0.000139257
-0.00682198
0.0067542
-0.00535056
0.00200909
0.00573581
-0.00305364
1.49473e-05
-0.00300512
-0.00310515
0.00295222
-0.00119977
-0.00305049
0.00274406
0.0033634
-0.00323315
0.000276858
-0.00225276
0.0019759
0.0040519
-0.00319121
0.00513751
-0.00487191
0.00286946
-0.00308535
-2.47046e-05
0.00302762
-0.00309207
0.00157047
-0.00132411
0.00125409
0.00227445
0.000392627
9.80033e-05
-0.0067542
0.00656013
-0.00140469
0.000450488
-0.00184522
0.000683223
-0.0067374
0.00566944
-2.73837e-05
0.00054513
0.0030418
-0.00310362
0.000140099
0.00016867
-0.00294436
0.00226287
0.00431135
-0.00164094
-0.00267042
0.00292307
-0.00281068
0.00158367
-0.00150165
-4.64386e-05
-0.00297016
0.00257608
-0.000481204
0.00353678
-0.00315607
0.00487191
-0.00465983
-0.00476774
0.00158545
-0.00608014
0.0034644
0.00465983
-0.00446953
0.00312329
-0.00310835
-0.00127835
-0.00142336
-0.000113125
-0.00169014
0.000344168
0.00290048
-0.000789962
-0.00656013
0.00623371
-0.000181033
-0.0054809
0.00247578
-0.00186831
0.00446953
-0.00422669
0.00414821
-0.00289412
-0.000556527
-0.000133127
0.000303626
-0.00275865
3.93224e-05
-0.00243057
-0.00265336
0.00138768
0.000957002
-0.000226099
0.000128276
-0.000229716
0.00186411
0.000213362
-8.50866e-05
-0.0010809
0.000813205
3.12298e-05
0.00278381
0.00281068
-0.00285308
-0.00609371
0.00415835
0.000182758
-8.47547e-05
0.00408497
-0.00249952
0.00308331
-0.00311069
7.7337e-05
-0.00805235
0.00667804
0.000738434
-0.00123897
0.00364876
-0.00296554
-0.00123965
-0.00130362
-7.99638e-05
-0.00155714
0.000233023
-0.00121297
0.00422669
-0.0038566
0.00322045
-0.00308035
0.00657547
-0.00205845
0.0036371
-0.0026801
-0.00467691
0.00191826
-2.03063e-05
0.00119085
-0.0012443
0.00352182
-0.00143228
0.00155791
-0.00623371
0.00577859
0.000492697
-0.00220113
-0.00134366
0.00151233
-0.00520447
0.0027739
-0.000168133
8.81691e-05
-0.00284723
0.00236603
-8.30431e-05
5.83385e-05
0.00328981
-0.00298619
0.00067156
-0.00282286
0.00203289
0.000112105
0.00285308
-0.00289952
0.00351932
-0.00232846
0.00145604
-0.00122302
0.0038566
-0.00331147
-0.00174007
0.0023142
0.000839218
-0.00055999
-0.00628738
0.00508761
-0.00393351
0.00143399
-0.000271154
0.000285982
-8.12407e-05
-0.000504804
-0.00537736
0.00350904
0.00312412
-0.00309289
0.00330395
-0.00281125
0.00235653
-0.00253756
-0.00201525
8.47547e-05
-7.41762e-06
-0.00278381
0.00267069
-0.00438224
0.0021811
-0.0025651
0.00323666
-0.00267069
0.00253756
0.00331147
-0.00249827
0.00524717
-0.00297272
-5.40034e-05
-0.00235653
0.00213043
0.000209461
0.000112382
0.00335856
-0.00192457
0.00310315
-0.00226393
0.000320638
-0.00153361
-0.00160834
1.34253e-05
0.000317761
0.00271396
-0.000849849
-0.00577859
0.00522207
0.0010301
-0.000617944
-0.00281068
0.00289952
-0.00291983
8.00441e-05
0.00163306
0.000538049
0.000425413
-0.00124377
0.00217232
-0.00138051
0.00015749
-0.00467122
0.00293116
-0.00246832
0.00118997
-0.00369744
0.00168219
-0.00222578
0.00098201
-0.00105987
-0.00121901
0.00249827
-0.0011372
-0.00136107
0.000474338
-0.00171399
-0.00108063
7.61685e-05
0.000255252
-5.83385e-05
4.33513e-06
-0.00105927
-0.00151633
0.0029373
-0.0019072
-0.00253577
0.00296118
-0.00275933
0.00307709
-0.00667804
0.00461958
0.00142336
-0.00138404
0.000673361
-0.00248785
0.00140722
-0.00264146
0.00179162
-0.00403029
0.00242195
-0.000623741
-0.00109025
0.00279496
-0.00225691