/*--------------------------------*- C++ -*----------------------------------*\
  =========                 |
  \\      /  F ield         | OpenFOAM: The Open Source CFD Toolbox
   \\    /   O peration     | Website:  https://openfoam.org
    \\  /    A nd           | Version:  8
     \\/     M anipulation  |
\*---------------------------------------------------------------------------*/
FoamFile
{
    version     2.0;
    format      ascii;
    class       volVectorField;
    location    "0.55";
    object      U;
}
// * * * * * * * * * * * * * * * * * * * * * * * * * * * * * * * * * * * * * //

dimensions      [0 1 -1 0 0 0 0];

internalField   nonuniform List<vector> 
1924
(
(-0.0280495 -0.0295534 2.09382e-17)
(0.099911 -0.0393858 2.04793e-17)
(0.7758 0.206882 4.28826e-18)
(0.738064 0.140079 2.48538e-18)
(0.0322346 -0.00533144 1.80524e-17)
(0.789382 0.0836946 2.59072e-18)
(0.746166 -0.00858724 6.30491e-19)
(0.862835 -0.0532342 -5.88393e-19)
(0.82287 -0.144362 3.84382e-20)
(0.74921 0.227384 4.48095e-18)
(0.917297 -0.194338 -3.1257e-19)
(0.882776 -0.288248 -5.1726e-19)
(0.0607285 -0.538426 3.92913e-18)
(0.992288 -0.353906 -1.43995e-18)
(0.146494 -0.6931 1.32324e-17)
(-0.0161903 -0.570229 1.34407e-17)
(0.0964192 -0.6236 4.3576e-18)
(0.963829 -0.441753 6.62001e-20)
(-0.125185 0.0712286 2.20583e-17)
(1.03795 -0.51195 -2.77182e-19)
(0.0191048 -0.237479 4.13857e-18)
(0.509697 -1.00708 1.20406e-17)
(0.278301 -0.852416 4.47499e-18)
(0.980962 -0.60502 -5.47925e-19)
(0.534953 -1.04749 1.19551e-17)
(1.21986 -0.309425 4.83059e-18)
(1.35496 -0.315873 1.89778e-18)
(0.659429 0.234616 5.27485e-18)
(0.383862 0.23441 1.45391e-17)
(0.332425 0.0292023 5.49194e-19)
(0.195512 -0.85555 3.95428e-18)
(0.560437 -0.946111 1.15492e-17)
(-0.104373 -0.0544979 2.0262e-17)
(0.137511 -0.715001 3.40825e-18)
(0.644649 0.185927 1.96169e-18)
(0.323629 -0.958387 4.24384e-18)
(0.728315 -0.650935 9.36197e-18)
(0.526894 0.180905 1.24862e-17)
(0.234204 0.0544859 5.54703e-19)
(0.16017 -0.787834 3.90872e-18)
(1.13368 -0.442581 5.62785e-18)
(0.0595744 -0.382507 3.73987e-18)
(1.17564 -0.384012 7.20007e-18)
(0.344868 -0.772607 2.87668e-18)
(0.389942 -0.173449 2.27759e-18)
(0.187738 -0.219468 1.34111e-17)
(-0.0930996 0.103632 2.34858e-17)
(0.527506 -0.280145 7.44622e-19)
(0.439727 0.252422 9.44711e-19)
(-0.00478883 -0.077437 2.98215e-18)
(0.976521 -0.67075 -2.07826e-18)
(0.0133094 -0.47545 4.39232e-18)
(0.473783 -1.0475 1.19261e-17)
(0.850403 -0.608891 -1.52199e-18)
(-0.239753 -0.377891 1.32228e-17)
(0.734615 0.181187 3.05869e-18)
(-0.171316 0.0954166 2.30647e-17)
(0.494184 -0.250611 3.22515e-18)
(0.583352 0.504009 6.15608e-18)
(0.564332 -0.0974928 6.44216e-18)
(0.491731 -0.779992 1.2115e-18)
(0.192022 -0.325607 1.22459e-17)
(0.634573 -0.699896 1.14494e-18)
(0.3272 0.218799 -1.66133e-18)
(0.796764 -0.679802 4.10322e-18)
(0.468177 -0.230919 5.80543e-19)
(0.0641774 -0.161298 6.99908e-18)
(0.280917 -1.01477 3.46905e-18)
(0.463575 0.0152087 1.29924e-17)
(0.918761 -0.644765 -4.87784e-19)
(0.542719 0.0607727 1.00913e-17)
(-0.0119574 -0.250599 1.1723e-17)
(0.208734 0.0207011 -8.35942e-20)
(0.36072 -0.0602462 1.26037e-18)
(0.299766 -0.125634 1.81173e-18)
(-0.150672 -0.286204 1.27392e-17)
(0.512282 -0.231407 3.96498e-19)
(0.357055 -0.168031 1.3288e-18)
(0.55126 -0.185121 8.36236e-19)
(0.781805 -0.739185 2.47583e-19)
(0.480891 -0.539907 -2.88493e-19)
(1.36867 -0.28664 2.97192e-18)
(0.33895 -0.157131 1.65447e-18)
(-0.0509454 -0.257906 4.49495e-18)
(0.0335039 -0.10947 1.95364e-17)
(0.29916 -1.04699 3.9397e-18)
(0.734604 0.545185 6.06341e-18)
(0.558567 -0.643759 1.14749e-17)
(0.162488 0.0376548 2.02456e-18)
(0.347789 -0.0306099 6.20809e-18)
(0.651913 -0.156805 6.51969e-18)
(1.27903 -0.223689 3.98118e-18)
(0.233789 -0.340853 1.0905e-17)
(0.356498 -0.124398 8.96656e-18)
(0.252869 -0.10827 5.21081e-18)
(0.228629 -0.276623 1.22859e-18)
(0.507037 -0.204553 4.97404e-19)
(0.546888 -0.549246 -1.19372e-19)
(0.917941 -0.249963 7.48428e-18)
(-0.0263139 -0.162551 1.2839e-17)
(0.851602 0.211682 6.39203e-18)
(0.0703517 -0.283616 4.309e-18)
(1.05221 -0.326052 8.63813e-18)
(1.17722 -0.277825 6.20031e-18)
(0.364396 -0.0742782 8.35584e-18)
(0.40047 -0.288089 1.55275e-18)
(0.85191 0.11393 7.09775e-18)
(0.135825 -0.389693 1.08787e-17)
(0.399216 -0.237583 9.38586e-18)
(0.477081 -0.126623 8.1287e-18)
(0.53028 -0.199149 4.49544e-19)
(0.590774 -0.0116105 1.02203e-17)
(0.422967 0.116285 1.19369e-17)
(0.387639 -0.0367062 4.16631e-19)
(0.530567 -0.178304 8.2407e-19)
(-0.084235 -0.204017 5.70522e-18)
(0.859259 0.196665 4.43492e-18)
(-0.297949 -0.626323 1.35393e-17)
(0.356799 -1.43545 6.99303e-18)
(0.534947 -0.196196 5.48382e-19)
(0.00527087 -0.138977 1.88491e-17)
(0.48744 0.0231838 -7.68418e-19)
(0.119434 -0.142121 3.03829e-18)
(0.0306365 -0.0935692 7.95956e-18)
(-0.0559331 -0.105336 9.55226e-18)
(0.671467 -0.224052 4.04855e-18)
(-0.0802018 -0.332115 1.23393e-17)
(0.336077 -0.222638 1.09573e-18)
(0.568558 -0.0681695 7.67177e-18)
(0.406267 -0.110086 -5.94607e-19)
(0.559703 -0.21885 4.75396e-19)
(0.926105 0.172701 5.85331e-18)
(0.0180288 -0.330628 1.46741e-17)
(0.421438 -0.0893907 9.99624e-19)
(0.0817008 -0.40754 5.21881e-18)
(0.651078 0.0104899 5.86743e-18)
(0.684461 0.215105 1.04316e-17)
(0.725065 0.126705 9.50878e-18)
(1.02845 -0.68657 3.69045e-19)
(0.594351 0.218345 6.51657e-18)
(0.58401 0.200985 2.99104e-18)
(0.176634 -0.116917 1.06997e-17)
(-0.0444054 0.541303 1.58601e-17)
(-0.182306 -0.524268 6.25329e-18)
(0.92891 0.134564 2.44463e-18)
(0.36159 -0.13674 -1.55855e-18)
(0.250186 -0.357169 6.8752e-18)
(0.197046 0.096346 1.05462e-17)
(0.264576 -0.429542 1.31049e-17)
(0.354719 -1.47894 7.29586e-18)
(0.282584 -0.316752 1.44498e-18)
(0.40701 0.000302601 2.04678e-19)
(0.0137491 -0.198984 1.06349e-17)
(1.02365 0.122453 4.01362e-18)
(0.917459 0.0845448 2.26104e-18)
(0.765933 -0.290626 3.18502e-18)
(0.468239 0.0791309 -2.23868e-18)
(0.767243 0.257552 8.02149e-18)
(0.604104 -0.228947 3.60815e-19)
(-0.129755 -0.389194 2.71882e-18)
(0.418972 -0.0167868 4.53182e-19)
(-0.207482 -0.259832 1.24513e-17)
(1.03233 0.103321 2.36357e-18)
(0.539161 -0.0010736 3.16639e-19)
(-0.0837247 -0.237583 1.43009e-18)
(0.794184 -0.0262723 5.29957e-18)
(1.01421 -0.166394 2.96526e-18)
(0.455689 0.0962813 -1.66191e-18)
(0.511376 -0.214387 6.0712e-19)
(0.746153 0.0114485 5.55876e-18)
(-0.0231306 0.129887 1.74331e-17)
(1.0262 0.0180357 2.53214e-18)
(0.36458 -0.328541 5.86824e-19)
(0.995224 -0.209093 6.6587e-18)
(0.665163 0.228094 2.67394e-18)
(0.210712 -0.434521 8.6201e-18)
(0.369036 0.053552 -3.03721e-20)
(0.198131 -0.258424 1.15648e-17)
(0.395393 -0.965838 3.92977e-18)
(1.14836 0.0331243 3.11828e-19)
(0.905816 -0.468789 3.27045e-18)
(-0.390928 -0.782149 1.45642e-17)
(0.45244 -0.146543 9.79721e-19)
(1.09486 -0.208284 3.21714e-18)
(0.539925 0.353291 -2.52949e-19)
(0.0872238 0.0767124 2.24065e-17)
(0.110274 -0.267238 1.10998e-17)
(1.30258 -0.371133 2.21805e-18)
(0.527833 -0.230213 5.13594e-19)
(0.461862 -0.0808282 9.80693e-19)
(0.0764347 -0.352246 9.88072e-18)
(1.01009 -0.0476755 2.82934e-19)
(0.599131 -0.273664 3.77154e-19)
(1.14339 -0.00604164 6.45699e-19)
(1.31887 -0.135569 1.38034e-18)
(0.396549 -0.00883244 2.39352e-19)
(1.46225 -0.316833 1.48771e-18)
(0.337597 -0.537981 9.91605e-18)
(0.537837 -0.496114 1.26049e-17)
(0.327092 -0.662528 9.06769e-18)
(-0.16617 -0.225794 5.6623e-18)
(0.210048 -0.113151 1.98786e-17)
(0.994573 -0.000329647 3.13521e-18)
(1.0894 -0.121534 1.81074e-19)
(-0.0284102 0.229922 1.6983e-17)
(0.973654 -0.530908 3.60714e-18)
(1.21801 -0.0844366 2.64173e-19)
(0.179553 -0.260962 9.96763e-18)
(0.169363 -0.00882119 1.0254e-17)
(-0.0201577 -0.383504 1.04636e-17)
(0.564725 -0.0165563 5.18628e-19)
(0.864023 0.0743141 5.12202e-18)
(1.09489 -0.837896 1.43949e-18)
(1.38057 -0.179127 1.28144e-18)
(1.3439 -0.426644 2.20654e-18)
(0.392369 -0.244324 7.82488e-19)
(0.306749 -0.549152 1.38642e-17)
(0.225551 -0.351453 7.50634e-18)
(1.19346 -0.134481 2.2396e-19)
(0.289271 -0.26934 1.04547e-18)
(0.59495 -0.349303 5.89177e-18)
(0.284838 -0.270131 3.7897e-18)
(1.11573 -0.0235753 2.98945e-18)
(1.09896 -0.868816 4.53468e-18)
(1.05706 -0.192683 9.13489e-20)
(1.47369 -0.3505 1.3296e-18)
(0.646569 -0.308826 9.6051e-19)
(0.393878 -0.399132 1.82109e-19)
(1.4281 -0.150646 6.24276e-19)
(0.399357 -0.737708 9.24541e-18)
(-0.231199 -0.209158 1.3857e-17)
(0.741956 -0.321102 8.94654e-18)
(0.616446 -0.586031 8.20569e-18)
(-0.0151963 -0.446716 1.37419e-17)
(1.46528 -0.311142 7.08395e-19)
(-0.0760911 -0.479795 2.1402e-18)
(0.915515 -0.970402 1.3094e-18)
(1.26142 -0.202474 3.45913e-19)
(1.2469 0.00811647 1.33163e-18)
(0.412205 -0.0326612 2.54804e-19)
(-0.492479 -0.885084 1.44522e-17)
(0.837317 -0.663371 4.26789e-18)
(0.895894 -0.888229 2.87527e-19)
(0.178222 -0.279691 9.45618e-18)
(0.23243 -0.231824 1.3438e-18)
(0.276227 -6.5491e-05 8.29783e-18)
(1.13995 -0.266304 1.12644e-18)
(0.558813 0.0602154 1.81131e-18)
(0.417603 -0.176054 1.07966e-18)
(0.370398 -0.373497 -9.45465e-20)
(0.605676 0.579216 8.78644e-18)
(0.538198 -0.0309981 5.21267e-19)
(1.44974 -0.182029 2.53938e-18)
(1.03557 0.0938618 2.07123e-18)
(0.515925 -0.261167 4.79326e-19)
(0.830999 -0.982308 8.24126e-18)
(1.20219 -0.272499 7.0889e-18)
(0.696815 -0.80588 5.50241e-18)
(0.655761 -0.29598 6.52023e-18)
(1.24286 -0.253594 3.99563e-19)
(0.948882 -0.229883 3.23789e-18)
(1.35113 -0.0312278 6.66151e-19)
(0.934553 -0.217834 8.09246e-18)
(0.42966 -0.216069 5.59558e-19)
(0.575346 -0.969556 1.20965e-17)
(0.220593 -0.176762 2.24369e-18)
(0.22553 -0.327338 3.09889e-18)
(0.3179 -0.338595 3.10524e-19)
(0.0688428 -0.112907 1.28187e-17)
(-0.204895 0.301432 2.23687e-17)
(0.390519 -0.803061 9.81338e-18)
(0.298604 -0.148612 7.17291e-19)
(-0.0292394 -0.450864 1.65201e-17)
(1.0472 -0.71908 5.85869e-18)
(0.475368 -0.227524 8.79626e-18)
(0.441441 -0.60388 4.6026e-19)
(1.11696 -0.336232 -1.53534e-19)
(1.448 -0.3341 1.94801e-18)
(1.08964 0.100126 2.65551e-18)
(0.565597 -0.737332 8.72042e-18)
(0.00224847 -0.267801 1.4546e-17)
(0.395976 -0.0499549 -1.3765e-20)
(0.788718 -0.26668 8.15448e-18)
(1.43631 -0.189206 6.37464e-19)
(-0.0619609 -0.0332561 2.03457e-17)
(0.43489 -0.092454 1.15407e-18)
(0.629867 -0.366946 1.0681e-19)
(0.507191 -0.0900509 -3.45719e-19)
(1.31704 -0.300148 -6.43749e-20)
(0.834362 -0.633304 3.35795e-18)
(1.36123 -0.064271 9.10926e-20)
(0.153344 -0.107138 1.94221e-18)
(1.39828 -0.306772 1.83997e-18)
(0.695993 -1.09911 4.54123e-18)
(-0.108062 -0.136911 4.56561e-18)
(-0.226681 0.0105191 1.36397e-18)
(0.483772 -0.912885 1.1653e-17)
(0.208928 -0.408009 7.83031e-18)
(0.290585 -0.32013 6.00571e-19)
(0.540638 -1.11468 8.27173e-18)
(0.325876 -0.0928762 -6.62148e-19)
(1.213 0.0479985 1.33833e-18)
(0.702578 -0.986686 8.22917e-19)
(0.192789 -0.580598 1.35534e-17)
(1.21731 -0.39775 -1.32049e-19)
(1.34749 -0.519896 2.552e-18)
(0.301589 -0.403311 3.15836e-18)
(0.692202 -0.889898 7.97201e-20)
(0.752663 -0.860971 8.09666e-18)
(0.514947 -0.191247 2.25435e-18)
(0.28394 -0.215417 9.1905e-18)
(0.424107 -1.4579 6.72503e-18)
(1.43533 -0.20308 4.0445e-19)
(0.455385 -1.18164 1.07281e-17)
(0.54842 -0.291529 1.64366e-19)
(0.245201 -0.477854 3.60465e-18)
(1.07675 -0.21236 1.53412e-18)
(1.3089 -0.353491 1.01562e-19)
(1.40851 -0.102767 -3.41564e-19)
(1.30303 -0.193999 1.51846e-18)
(0.158658 -0.142373 2.38971e-18)
(0.445605 -0.861632 1.01087e-17)
(1.23617 0.00955945 6.39509e-19)
(-0.0418743 0.0504454 4.17201e-20)
(1.41025 -0.393922 1.12251e-18)
(0.384536 -0.489234 6.0927e-19)
(1.16922 -0.496058 2.74341e-18)
(1.06394 -0.720899 5.08011e-18)
(0.602848 0.0942502 1.54911e-18)
(0.681655 -0.429264 -3.87209e-19)
(0.603377 -0.74457 6.26236e-18)
(-0.165942 -0.0472651 4.40707e-18)
(0.422328 -1.2477 9.16345e-18)
(1.17596 -0.480203 4.86695e-20)
(0.238366 -0.28408 1.35136e-18)
(1.37253 -0.340639 3.18659e-18)
(0.452401 -0.0496618 9.10133e-18)
(1.38914 -0.146531 3.59182e-19)
(1.40974 -0.211977 6.08339e-19)
(1.30534 -0.0487976 -3.81651e-19)
(0.360758 -0.461883 1.07655e-19)
(0.336757 -0.0216261 -3.12329e-19)
(0.505305 -1.13578 1.18176e-17)
(0.222213 -0.550782 8.28231e-18)
(0.15276 -0.965661 1.26795e-17)
(-0.426266 -0.295963 1.01713e-17)
(-0.345313 -0.490712 1.76576e-17)
(-0.395027 -0.0202802 9.95005e-18)
(0.563782 -1.35746 3.33943e-18)
(1.30714 -0.518522 1.7571e-18)
(1.09361 -0.535484 9.80307e-18)
(0.347304 0.387437 6.5359e-18)
(0.004922 -0.666585 1.60119e-18)
(0.463329 -1.17516 4.13274e-18)
(0.240704 -0.410846 6.62784e-18)
(0.318309 -0.419242 6.22291e-20)
(0.431976 0.291427 -6.56669e-19)
(1.35875 -0.373918 7.77501e-19)
(0.666297 -0.936944 8.16666e-18)
(0.0480126 -0.0529018 -1.18596e-18)
(1.28381 -0.322787 3.7761e-18)
(0.17456 -1.15097 1.09114e-17)
(0.516843 -1.07923 1.81801e-18)
(-0.0426849 -0.169611 7.63744e-18)
(0.698897 -0.949462 1.17259e-17)
(1.2983 -0.0965365 3.13358e-20)
(0.4795 -1.17964 1.19857e-17)
(0.424668 -0.963955 1.04586e-17)
(1.38526 -0.206601 -2.65023e-20)
(1.40829 -0.168507 5.59309e-20)
(0.533739 -0.917055 -7.97775e-20)
(1.38744 -0.191748 1.45124e-18)
(0.858079 -0.765211 4.90865e-18)
(-0.497385 -0.91046 1.30484e-17)
(1.26511 -0.238845 4.98495e-18)
(0.029859 0.0137916 1.07786e-17)
(0.011589 -1.09312 1.19518e-17)
(-0.0319093 -0.879031 1.37506e-17)
(0.563149 -1.0739 1.24033e-17)
(-0.491749 -0.104393 9.10695e-18)
(-0.550922 -0.225895 8.60726e-18)
(0.294184 -0.397047 6.63782e-19)
(1.23054 -0.465249 1.50367e-18)
(1.44569 -0.202025 1.52646e-18)
(0.509245 -0.822957 8.33214e-18)
(0.522483 -0.840474 -5.80724e-19)
(0.204495 -0.265012 2.11943e-18)
(-0.148307 -0.197585 7.55231e-18)
(1.2882 -0.237406 5.22856e-18)
(1.34114 -0.143965 1.80238e-19)
(0.128621 -0.583649 8.96093e-19)
(0.401793 -1.33417 8.60945e-18)
(1.40942 -0.396167 1.54338e-18)
(-0.382639 -0.084988 1.25691e-17)
(1.39212 -0.208818 8.09924e-20)
(0.016276 -0.0494499 1.36655e-17)
(1.18172 -0.362128 8.37514e-18)
(0.528294 -1.14042 1.21585e-17)
(0.658827 -0.496115 -2.20484e-19)
(-0.502748 -0.48064 1.14496e-17)
(0.203287 -0.180085 -2.57782e-19)
(0.240416 -0.368249 6.3417e-19)
(0.249805 -0.735746 7.25758e-18)
(0.0375754 -0.262557 1.22537e-17)
(0.325682 0.0504039 -8.9672e-19)
(0.108121 -0.196323 1.09871e-17)
(0.465104 -0.722212 3.14576e-19)
(-0.446378 -0.0154942 1.29529e-17)
(0.640151 -0.852191 7.96796e-18)
(1.07101 -0.504649 9.43857e-18)
(1.23731 -0.358074 6.77324e-18)
(0.317074 -1.45828 7.06553e-18)
(1.34099 -0.435499 1.61433e-18)
(1.32879 -0.193209 2.94705e-19)
(1.34026 -0.195155 4.60655e-19)
(0.143178 -0.551411 1.38206e-17)
(0.377815 -0.584167 6.26793e-19)
(0.0763841 -1.24979 9.57568e-18)
(0.323072 -1.24175 5.49748e-18)
(0.564404 -0.0554722 7.25013e-19)
(0.188005 -1.19431 6.24235e-18)
(0.465892 -0.998659 1.00886e-17)
(0.443775 -0.667346 6.71275e-19)
(0.192999 -0.515517 7.69702e-18)
(0.649374 -1.00934 1.24413e-17)
(0.349472 -1.04749 1.0927e-18)
(0.52966 -0.333693 -8.56094e-21)
(0.130338 -0.245201 2.8555e-18)
(0.465588 -1.28278 1.20195e-17)
(0.969848 -0.339378 9.29421e-18)
(-0.118736 -0.110046 9.85221e-18)
(0.349396 -0.552154 -1.66627e-19)
(0.655203 -0.330564 7.88411e-18)
(0.345471 -1.47039 8.36065e-18)
(1.39112 -0.204596 1.10965e-18)
(1.15752 -0.316927 7.77983e-18)
(0.392765 -0.987729 2.695e-19)
(0.703756 -0.318105 1.14362e-18)
(1.36564 -0.218681 7.68825e-20)
(0.585569 -1.0939 1.24867e-17)
(0.562575 -0.85919 8.37139e-18)
(1.29261 -0.325225 7.5804e-18)
(1.47945 -0.221536 1.19773e-19)
(-0.506337 -0.259031 2.68981e-18)
(-0.458841 -0.161116 1.02631e-17)
(0.0700128 -0.159578 9.19546e-19)
(1.11269 -0.333198 7.74874e-18)
(0.210769 -0.351337 8.00419e-19)
(1.43994 -0.387481 1.04753e-18)
(-0.314471 -0.328923 1.2264e-17)
(-0.284363 -0.902388 1.41336e-17)
(0.448094 -1.32822 1.17052e-17)
(1.45705 -0.230898 1.715e-19)
(0.709357 -0.571869 -7.12901e-20)
(1.2539 -0.388976 8.36732e-18)
(1.45099 -0.372161 1.39933e-18)
(0.400285 -0.854091 -2.04217e-19)
(-0.20901 -1.08869 1.21294e-17)
(0.333107 -1.48825 7.36367e-18)
(-0.601701 -0.305342 8.0067e-18)
(0.303817 -0.502938 -4.6473e-19)
(0.515882 -1.22872 1.22548e-17)
(0.349123 -0.590157 2.7764e-18)
(0.346601 -1.51914 7.97611e-18)
(0.254234 -0.781568 8.16288e-18)
(-0.326158 -0.350509 1.43959e-17)
(-0.270521 -0.197097 1.37231e-17)
(1.27605 -0.171764 1.04494e-18)
(1.36689 -0.261448 -3.78681e-20)
(0.530684 -0.154023 1.23162e-18)
(1.04704 -0.679805 1.17913e-17)
(0.355972 -1.44383 6.60055e-18)
(0.13639 -0.271992 3.06102e-18)
(0.39242 -0.792927 -2.39061e-19)
(0.430415 -1.05544 1.03853e-17)
(0.281702 -0.481513 -2.93106e-19)
(0.176552 -0.263343 3.31315e-18)
(1.2905 -0.40473 4.21426e-18)
(-0.481203 -0.215656 1.06497e-17)
(-0.622564 -0.504515 1.02478e-17)
(0.99387 -0.352061 7.92146e-18)
(1.37523 -0.225047 4.832e-19)
(0.137459 -0.407216 1.36554e-17)
(-0.346105 -0.186967 1.26716e-17)
(0.488862 -1.27923 1.36596e-17)
(0.759912 -0.988987 1.24412e-17)
(1.16926 -0.338638 1.04279e-17)
(-0.424226 -0.962212 1.1932e-17)
(0.54226 -0.510989 1.26209e-17)
(0.564314 -0.378525 -3.70305e-20)
(0.589344 -0.389089 1.78822e-18)
(0.720986 -0.523492 1.37749e-17)
(0.344389 -1.45994 8.96188e-18)
(0.624498 -0.0602519 5.79292e-19)
(0.0648045 -1.08233 4.00537e-18)
(0.358548 -0.68972 -1.24213e-20)
(-0.562695 -0.290459 9.0136e-18)
(0.0250556 -0.368558 1.35898e-17)
(1.22838 -0.362876 1.04248e-17)
(-0.151268 -0.0145411 -1.11516e-18)
(0.148454 -1.05927 1.88937e-18)
(-0.321281 -1.01281 1.29894e-17)
(0.527056 -0.954933 8.95083e-18)
(0.592389 -1.19495 1.23299e-17)
(0.142359 -0.647149 6.05398e-18)
(-0.125439 -0.564607 1.13804e-17)
(-0.16811 -1.19452 1.0033e-17)
(1.26212 -0.559574 1.1572e-17)
(0.414646 -1.42228 1.158e-17)
(0.274467 -0.962141 -5.91375e-20)
(0.238473 -0.449077 5.17541e-19)
(0.339615 -0.645488 3.25878e-19)
(-0.172365 -0.493656 1.43083e-17)
(1.44803 -0.24528 5.18561e-19)
(-0.171743 -0.418581 1.59684e-17)
(-0.201119 -0.40565 1.48079e-17)
(0.557541 -1.25124 1.18859e-17)
(1.44954 -0.378839 7.36431e-19)
(1.37214 -0.250091 5.69139e-19)
(-0.635861 -0.416545 9.78955e-18)
(0.313354 -1.52099 7.98926e-18)
(-0.246198 -1.16744 1.07392e-17)
(0.290129 -0.585195 -6.56421e-19)
(0.29476 -0.907658 -1.43206e-19)
(1.40438 -0.238185 9.50334e-19)
(1.40617 -0.368618 2.5707e-18)
(0.153327 -0.342343 2.24621e-18)
(0.582389 -0.850888 1.44598e-18)
(1.22055 -0.679823 1.24998e-17)
(1.17293 -0.130138 1.98284e-18)
(0.373568 -1.46251 7.93245e-18)
(1.19568 -0.480674 5.21936e-18)
(0.341332 -1.49722 6.32609e-18)
(0.339097 -1.15319 4.87465e-18)
(0.24327 -0.895584 8.99366e-18)
(-0.281615 -0.336848 1.36859e-17)
(1.32973 -0.185746 7.0377e-19)
(0.44859 -1.0682 1.0579e-17)
(0.265675 -0.688594 2.76522e-18)
(0.743766 -1.12409 1.2021e-17)
(0.489684 -1.31657 1.20324e-17)
(-0.00755357 -0.0152838 -1.52653e-18)
(0.842471 -0.823165 -4.07695e-19)
(0.214184 -0.433434 1.01513e-18)
(0.296054 -0.792818 -1.84227e-19)
(0.717913 -0.531322 1.41885e-17)
(0.116203 -0.25756 3.10789e-18)
(0.138168 0.158603 2.55438e-19)
(-0.394177 -0.293625 1.2682e-17)
(0.663984 -0.638933 -3.08527e-19)
(0.952364 -0.471384 1.34311e-17)
(0.153164 -0.511419 1.48815e-17)
(-0.58282 -0.706575 1.23565e-17)
(0.328832 -1.45689 9.32763e-18)
(1.1911 -0.516418 1.20783e-17)
(0.36416 -1.24074 5.85344e-18)
(0.521653 -0.911779 3.52092e-18)
(0.938181 -0.78842 -4.42472e-18)
(-0.52754 -0.0160118 -3.77376e-18)
(0.221763 -0.243568 5.34746e-18)
(0.637591 -1.21143 1.20553e-17)
(0.324582 -1.43949 8.08649e-18)
(-0.0116188 -0.369546 1.26849e-17)
(0.0459545 -0.525702 1.48346e-17)
(0.533867 -0.983138 9.72309e-18)
(0.28621 -1.14142 4.29486e-18)
(0.269399 -0.560546 -7.14427e-19)
(0.652571 -0.159781 3.67351e-19)
(0.126131 -0.280034 3.2748e-18)
(0.426941 -1.36126 1.5035e-17)
(0.290136 -0.748086 -2.48161e-19)
(0.404594 -0.555205 1.3949e-17)
(1.23498 -0.639057 1.21109e-17)
(-0.0975827 -0.538118 1.6192e-17)
(0.160366 -0.417054 1.02826e-18)
(-0.210463 -0.479518 1.42027e-17)
(0.449569 -1.05995 2.77888e-18)
(0.182201 -0.735025 5.72962e-18)
(0.0791252 -0.997209 6.07285e-19)
(0.340067 -1.39136 6.72642e-18)
(0.565297 -1.31806 1.19989e-17)
(-0.509472 -0.406877 9.94297e-18)
(1.3683 -0.287379 7.98266e-19)
(-0.14564 -0.550252 1.60384e-17)
(0.790694 -0.873343 -3.0043e-18)
(0.759395 -0.875061 7.75818e-19)
(-0.0977073 -1.03785 5.07006e-18)
(0.578486 -1.08549 -2.24223e-19)
(0.265718 -0.67092 -2.32633e-19)
(0.226786 0.0364918 -8.54749e-19)
(1.21327 -0.891787 1.1094e-17)
(0.331782 -1.44787 8.05289e-18)
(-0.21659 0.176601 2.17501e-17)
(0.929388 -0.888016 -9.0642e-18)
(0.923619 -0.883278 -2.18846e-18)
(0.138319 -0.975278 6.03939e-20)
(-0.246226 -0.442262 1.3469e-17)
(0.473673 -0.331978 2.55836e-19)
(-0.375351 -0.362023 1.38205e-17)
(0.495312 -1.2295 6.69788e-18)
(0.219803 -0.075873 4.12471e-19)
(-0.157946 -1.09143 7.93994e-18)
(1.05261 -0.0956385 3.09661e-18)
(0.163651 -0.0675748 2.80809e-18)
(0.345067 -1.43136 9.90113e-18)
(0.849031 -0.472544 9.46595e-18)
(1.37823 -0.372479 3.65943e-18)
(0.229104 -0.524623 1.52546e-20)
(0.288779 -1.04789 7.62314e-18)
(0.450638 -0.457148 -5.54522e-19)
(1.05651 -1.08958 1.12652e-17)
(-0.449405 -1.00061 1.20115e-17)
(0.432175 -1.13493 4.05772e-18)
(0.536679 -0.42383 1.72906e-19)
(0.545792 -1.33499 1.16891e-17)
(-0.418668 -0.302314 1.32409e-17)
(1.36838 -0.24958 1.52251e-18)
(0.23841 -0.916047 7.87218e-18)
(0.742785 -0.864737 -3.47368e-19)
(0.0243986 0.0494669 1.62225e-18)
(0.202683 -0.878212 -1.50562e-19)
(0.251321 -0.640652 -3.24356e-19)
(0.711103 -0.183215 2.73733e-19)
(0.674482 -1.26787 1.16156e-17)
(1.25734 -0.180177 1.13764e-18)
(0.124409 -0.338645 3.14132e-18)
(0.637747 -0.983799 2.37576e-18)
(-0.461696 -0.421048 1.24778e-17)
(1.27998 -0.371689 5.64666e-18)
(0.424256 -1.31714 5.82336e-18)
(-0.559677 -0.50939 1.16708e-17)
(0.841278 -0.537866 1.23799e-17)
(0.445901 -0.381203 3.36236e-19)
(0.578713 -1.04519 5.32705e-18)
(0.33654 -1.4202 9.95761e-18)
(0.440984 -0.478541 1.01185e-18)
(0.985849 -0.635038 1.36204e-17)
(-0.0742021 -0.118518 4.7077e-19)
(0.426032 -0.572332 1.39771e-17)
(0.213839 -0.833959 -1.46195e-19)
(0.123478 -0.561237 1.41968e-17)
(-0.0521642 -0.556629 1.46444e-17)
(0.419285 -1.36888 1.40164e-17)
(1.14623 -0.800515 1.08988e-17)
(-0.417436 -0.475798 5.36967e-18)
(-0.369079 -1.11538 1.00741e-17)
(0.635651 -1.29803 1.17251e-17)
(-0.320023 -1.01115 9.96638e-18)
(0.350542 -0.569878 1.38761e-17)
(0.48709 -1.02642 1.10673e-17)
(0.50012 -0.595246 7.17013e-18)
(-0.126573 -0.568044 1.4317e-17)
(0.705303 0.275199 6.84106e-18)
(1.29331 -0.220274 1.51903e-18)
(0.586741 -1.05868 1.74809e-18)
(-0.19935 -0.566342 1.3152e-17)
(0.771719 -0.105566 4.22094e-18)
(0.208771 -0.50968 -7.42231e-19)
(1.20681 -0.921096 1.03437e-17)
(0.420124 -1.37958 6.21488e-18)
(0.326509 -1.31273 6.93881e-18)
(0.847457 -0.949619 1.85551e-19)
(0.136926 -0.401981 7.84928e-19)
(0.216561 -0.74958 -3.03675e-19)
(-0.274168 -0.551457 1.26188e-17)
(-0.00485723 -0.349231 3.02732e-18)
(1.00501 -1.16951 9.6767e-18)
(-0.525897 -0.472416 1.2099e-17)
(0.332727 -1.33678 1.0466e-17)
(0.318873 -1.3946 1.20049e-17)
(0.540648 -1.15066 1.13346e-17)
(0.216285 -0.595003 -3.92366e-19)
(0.726119 -0.514288 1.29893e-18)
(0.574473 -0.477944 -5.37264e-20)
(-0.410152 -1.06363 1.06204e-17)
(0.212477 -0.718488 -3.36566e-19)
(1.2777 -0.218179 1.21196e-18)
(-0.497002 -0.753842 1.26478e-17)
(0.936937 -0.95187 -2.59204e-20)
(0.547429 -1.20772 3.79361e-18)
(-0.056097 -0.955754 8.45528e-19)
(-0.134289 -0.946323 2.08507e-18)
(-0.45677 -0.338835 1.37655e-17)
(-0.432481 -0.376146 1.36953e-17)
(0.817649 -1.30209 1.04694e-17)
(1.13558 -0.108297 4.11322e-18)
(-0.459792 -0.451271 1.06052e-17)
(0.0213597 -0.104474 1.45234e-19)
(0.0758986 -0.92579 -1.48307e-19)
(0.777565 -1.00005 2.30896e-19)
(0.326828 0.0688586 -4.07758e-19)
(0.842181 -0.0444846 7.2412e-18)
(0.71025 -0.267211 6.20876e-19)
(0.807592 -0.679047 9.9072e-18)
(0.881659 0.235547 4.48511e-18)
(-0.296653 -0.993184 7.40425e-18)
(0.537326 -1.27516 4.5671e-18)
(0.166475 -0.492264 5.77379e-19)
(0.500633 -1.22526 8.54378e-18)
(0.646843 -1.15571 1.11717e-17)
(0.194795 -0.6642 -4.23813e-19)
(0.46557 -0.265648 1.756e-18)
(0.500339 -0.614865 9.57959e-18)
(0.154518 -0.792154 4.91041e-18)
(0.841381 -0.984533 -4.59697e-18)
(0.361985 -0.578308 1.08033e-17)
(-0.0561656 -0.548315 1.47133e-17)
(0.903178 -0.815934 9.13431e-18)
(0.106115 -0.892615 -1.4199e-19)
(0.327892 -1.33537 7.74965e-18)
(0.568023 -0.681219 9.27525e-18)
(0.916626 -0.997097 4.82029e-20)
(-0.141185 -0.553794 1.2526e-17)
(0.03525 -0.111888 -1.65252e-19)
(1.0182 -0.919942 8.21667e-18)
(1.21636 -0.341374 7.63511e-18)
(-0.268089 -0.518136 1.12313e-17)
(0.616016 0.237259 2.01641e-18)
(-0.322639 -1.04884 8.50138e-18)
(-0.040347 -0.0427554 2.06735e-17)
(0.139437 -0.480979 1.19442e-18)
(-0.515678 -0.444249 1.36589e-17)
(0.199384 -0.57832 -1.41463e-19)
(0.701179 -1.12145 2.2365e-18)
(-0.520783 -0.63079 1.25955e-17)
(-0.12258 -0.00441391 4.66801e-18)
(-0.0183156 0.159348 7.53624e-18)
(1.00817 -0.935939 8.33093e-19)
(0.27865 -1.00916 8.58888e-18)
(0.144746 -0.811748 -1.39994e-19)
(-0.314669 -0.517252 1.09771e-17)
(0.498029 -1.39878 6.63272e-18)
(0.0423186 -0.129862 2.7044e-18)
(0.542157 -1.0124 1.11782e-17)
(-0.497283 -0.358394 1.35046e-17)
(1.01586 -1.02144 7.93368e-18)
(-0.549131 -0.390921 1.13768e-17)
(0.215509 -0.582563 1.21218e-17)
(-0.521293 -0.356097 1.32507e-17)
(0.447851 0.166501 8.35598e-19)
(0.907534 -1.00745 -5.1608e-19)
(-0.625164 -0.548557 7.8311e-18)
(0.182876 -0.644597 -1.51579e-19)
(0.578297 -0.0296844 -8.94626e-19)
(0.777875 -0.314959 1.90756e-20)
(-0.158456 -0.678771 3.70732e-18)
(0.263866 -1.23052 8.11758e-18)
(0.67342 -1.19089 2.57078e-18)
(0.371419 -1.09162 1.17785e-17)
(0.153281 -0.781845 -2.84436e-19)
(0.806521 -0.99467 9.43064e-18)
(-0.711099 -0.298756 5.17461e-18)
(1.23218 -0.263919 4.21206e-18)
(0.0958821 -0.0972992 1.68122e-18)
(0.134567 -0.0806443 4.17986e-18)
(1.23377 -0.246742 2.37267e-18)
(0.101371 -0.25647 2.23693e-18)
(0.864922 -1.06649 1.18661e-18)
(0.189839 -0.149754 1.93578e-19)
(-0.535169 -0.445688 1.36504e-17)
(0.0905471 -0.330936 2.55901e-18)
(-0.709373 -0.498705 6.11355e-18)
(-0.250195 -0.955731 8.56247e-18)
(0.15612 -0.7246 -4.43645e-19)
(0.750845 -0.852833 9.77801e-18)
(0.648344 -1.2621 3.25665e-18)
(0.552831 -0.73554 7.45852e-18)
(0.237125 -1.17314 9.04512e-18)
(0.847167 -1.07055 -7.71534e-20)
(0.303406 -0.613844 7.03273e-18)
(-0.53988 -0.495157 1.31841e-17)
(0.458693 -0.625186 6.6962e-18)
(-0.0292874 -0.145567 1.21605e-18)
(-0.486247 -0.507589 5.2603e-18)
(0.193238 -0.850229 5.76714e-18)
(-0.0649253 -0.913101 3.06932e-20)
(0.284754 -1.13478 5.68629e-18)
(0.662175 -0.788248 7.20398e-18)
(0.808814 -1.12584 1.37532e-18)
(-0.200769 -0.418073 1.04061e-17)
(0.234739 0.137481 -5.19848e-19)
(0.164009 -0.557661 -5.17835e-19)
(0.897855 -0.100093 6.62134e-18)
(0.0196186 -0.387176 1.22865e-17)
(1.11734 -0.701316 6.0355e-19)
(0.0948458 -0.396331 2.31206e-18)
(-0.418415 -0.846887 1.26515e-17)
(0.2062 -0.584916 7.82673e-18)
(-0.266881 -0.8569 3.2527e-18)
(-0.132709 0.130719 5.31857e-20)
(0.640995 -1.35381 2.69339e-18)
(0.684771 1.19018 -7.07349e-19)
(-0.211657 -0.877592 1.80811e-18)
(-0.441508 -0.357197 7.31768e-18)
(0.490758 -0.887822 1.17216e-17)
(0.153127 -0.70441 -6.0834e-19)
(-0.0198992 -0.903433 -1.32222e-19)
(0.593492 -0.367823 -3.04643e-18)
(0.112013 -0.507736 8.33752e-18)
(1.08701 1.36872 1.3632e-18)
(0.568309 -0.596915 1.21473e-18)
(0.281297 -1.07096 8.40331e-18)
(0.765744 -0.760259 7.86964e-18)
(0.227664 -0.181966 6.30409e-18)
(0.154481 -0.617443 -4.6928e-19)
(-0.366892 -1.04585 9.06337e-18)
(0.2273 -0.0566037 1.45959e-18)
(-0.551752 -0.494201 1.32064e-17)
(-0.771783 -0.413652 5.04753e-18)
(0.191079 -1.00691 9.19672e-18)
(0.0842603 -0.43929 1.24802e-18)
(0.0543702 -0.849557 -4.01999e-20)
(-0.218892 -0.0124517 6.47836e-18)
(0.30759 0.0318445 1.79424e-19)
(1.0227 1.03332 5.05877e-18)
(0.758152 -1.18668 2.06757e-18)
(-0.647248 -0.332969 1.1792e-17)
(0.905285 -1.07248 -1.91526e-19)
(0.739601 -0.702879 8.2774e-18)
(0.349661 -1.42378 7.5226e-18)
(0.262551 1.10553 7.25406e-20)
(1.10342 -0.184421 4.42299e-18)
(-0.298013 -0.933232 6.2685e-18)
(0.895031 -1.11528 -3.96466e-19)
(-0.966286 -0.346703 5.65634e-18)
(0.0743752 -0.824792 -9.57305e-20)
(0.256689 -0.815766 1.0766e-17)
(-0.825018 -0.370535 9.68564e-18)
(-0.85459 -0.345753 4.9901e-18)
(0.733401 -1.19549 2.74283e-18)
(-0.518966 -0.647039 1.28824e-17)
(0.137127 -0.673587 -7.45789e-19)
(0.466241 0.476896 6.99639e-18)
(0.170154 -0.506434 6.94995e-18)
(0.640871 -0.550369 1.23582e-17)
(0.187766 -0.533748 7.05271e-18)
(0.144987 -0.549538 -2.2401e-19)
(-0.833848 -0.302464 9.14355e-18)
(0.102313 -0.771691 -3.04135e-19)
(0.127598 0.535292 -1.42834e-18)
(0.774388 -0.405711 -3.08284e-19)
(0.701928 -0.411444 1.24535e-18)
(0.0343038 -0.521833 6.98516e-18)
(0.380364 -0.497618 7.49908e-18)
(0.428135 0.23854 -1.62039e-18)
(0.484833 1.44653 -4.35953e-18)
(-0.0871099 -0.538438 6.96797e-18)
(0.509148 -0.491713 1.35527e-17)
(-0.635474 -0.452034 1.30892e-17)
(0.866516 1.78123 -1.10694e-18)
(0.895682 -0.189897 7.42224e-18)
(-1.19162 -0.317822 1.37813e-18)
(0.857019 -1.16468 1.14589e-18)
(0.139252 -0.609179 1.50706e-19)
(-0.565593 -0.586354 1.29016e-17)
(-0.55654 -0.388381 3.93453e-18)
(0.299201 1.35981 -1.23162e-19)
(0.210488 -0.75019 4.9964e-18)
(0.814752 -1.07438 -7.78433e-19)
(0.0968675 -0.531614 7.71339e-19)
(-0.863407 -0.297007 8.55778e-18)
(-0.287349 -0.983495 6.81081e-18)
(-0.708749 -0.372134 2.5713e-18)
(0.0768355 -0.318418 3.09801e-18)
(0.205202 1.02447 2.00748e-19)
(-0.897926 -0.264998 1.90992e-18)
(0.87682 -1.15246 -3.30881e-19)
(0.415095 -0.44388 7.90348e-18)
(0.824355 -1.18759 1.60313e-18)
(0.884083 -1.51574 -7.63028e-19)
(0.107827 -0.752914 -1.0511e-18)
(1.07991 1.99059 1.02147e-18)
(0.429718 0.792616 1.03025e-18)
(0.697332 -0.0547405 7.95611e-18)
(0.186171 -0.528225 8.93694e-18)
(0.0787554 -0.288348 2.4725e-18)
(0.126418 -0.66468 -1.51052e-18)
(0.605598 -0.30415 1.95637e-18)
(0.0159619 -0.0153274 5.83868e-19)
(-0.228307 -0.478084 4.16936e-18)
(-0.13135 -0.50835 2.67164e-18)
(1.02006 1.86848 3.4945e-18)
(-0.746197 -0.389262 1.15128e-17)
(0.070677 -0.386872 2.20012e-18)
(-0.927439 -0.150486 5.27642e-18)
(0.5057 -0.293345 1.16395e-17)
(-1.05233 -0.225371 9.94337e-19)
(0.842524 -0.472662 4.16329e-19)
(-1.24232 -0.275573 1.11323e-18)
(-1.06888 -0.287647 4.61533e-18)
(0.199958 -0.161033 9.46767e-18)
(0.106784 -0.717134 -9.19064e-19)
(0.0268286 -0.304593 1.70907e-17)
(-0.225251 -0.919529 4.22399e-18)