/*--------------------------------*- C++ -*----------------------------------*\
  =========                 |
  \\      /  F ield         | OpenFOAM: The Open Source CFD Toolbox
   \\    /   O peration     | Website:  https://openfoam.org
    \\  /    A nd           | Version:  8
     \\/     M anipulation  |
\*---------------------------------------------------------------------------*/
FoamFile
{
    version     2.0;
    format      ascii;
    class       volScalarField;
    location    "0.15";
    object      alpha.water;
}
// * * * * * * * * * * * * * * * * * * * * * * * * * * * * * * * * * * * * * //

dimensions      [0 0 0 0 0 0 0];

internalField   nonuniform List<scalar> 
1924
(
0.168097
0.327375
6.5969e-05
0.000579361
8.52669e-06
4.49267e-07
4.87299e-06
9.61146e-06
1.00245e-05
3.01619e-05
5.11162e-06
1.93206e-07
0.00792172
7.84675e-10
5.71913e-19
9.06701e-26
0.0005749
1.20165e-10
0.755008
6.49555e-12
0.0710629
1.42755e-16
1.09313e-07
7.1268e-12
4.55529e-19
2.58182e-22
6.5294e-21
0.228167
8.20468e-06
1
8.66185e-07
1.32271e-19
2.2363e-05
8.09261e-05
4.14613e-05
6.86425e-09
1.08834e-17
8.20468e-06
1
2.09878e-05
3.78286e-20
0.047113
1.20992e-21
1.49518e-06
0.998114
7.09861e-05
0.996759
0.998896
0.366122
0.00190434
4.32169e-12
0.0360946
3.18783e-15
7.57749e-12
1.14766e-06
3.29298e-05
0.998615
0.998272
0.932206
3.6272e-28
4.29907e-08
4.45057e-24
6.9887e-07
1
3.30632e-13
0.997324
1.36927e-30
4.6039e-10
2.69555e-05
2.10038e-09
2.32536e-05
4.35534e-31
1
1
0.999994
1.55402e-06
0.804521
0.999956
0.999863
4.31802e-10
-3.31394e-12
2.96348e-23
1
0.0288485
0.000104138
2.03145e-11
0.901393
4.43556e-18
0.0899638
2.53455e-05
4.1608e-29
5.62743e-24
1.80192e-05
4.05971e-06
0.00887419
3.3214e-14
0.393845
1.50949e-05
1.88369e-26
2.64282e-06
8.92697e-06
0.0299066
1.33516e-24
1.49504e-25
2.44437e-07
0.357386
1.87099e-06
2.20459e-08
3.24659e-32
1.33723e-05
0.171858
9.53454e-06
8.20468e-06
1
0.999358
0.000155962
6.00802e-05
1.82625e-32
2.34515e-17
0.99309
0.0010043
0.999997
0.0672973
0.000287249
4.48298e-32
1.69709e-09
1.38104e-05
0.999447
8.40206e-06
1
0.111053
2.17104e-07
1.306e-07
1
0.0371342
3.76569e-07
8.20468e-06
1.00535e-05
3.72421e-12
1.8016e-05
0.488756
3.53709e-29
0.999137
0.000196115
1.88311e-05
1
9.07189e-09
1.81657e-05
1.52155e-35
1.549e-19
1
0.999998
4.2364e-05
5.81547e-08
2.11848e-07
6.67444e-10
0.999997
2.89213e-05
3.04656e-05
1
1
2.66131e-07
1.85683e-08
1
1
6.70638e-08
3.97257e-10
0.999998
0.748482
7.38042e-07
8.56196e-06
3.3481e-09
2.02423e-08
2.69129e-27
0.00101662
5.06743e-08
1
2.54868e-06
7.37933e-10
9.51152e-09
1.25916e-11
7.497e-29
0.999974
5.98427e-11
0.377373
0.863206
0.000104537
3.55315e-13
0.0303505
1
2.18693e-08
5.1105e-09
0.0130279
5.21271e-10
2.65561e-11
1
9.28482e-16
1.45267e-08
6.22084e-10
1.73875e-07
0.0004787
0.698377
3.81786e-08
1.23743e-10
8.28279e-06
4.6741e-12
-5.84465e-12
0.000185599
0.00014645
1.306e-07
1
5.89398e-07
1.07393e-15
2.78979e-12
1.12357e-14
0.985798
1.79631e-37
4.66102e-09
2.45721e-11
0.995907
6.4564e-10
1
2.11266e-09
3.12363e-18
9.44947e-11
3.26677e-17
0.00815343
3.08097e-08
4.143e-14
3.79222e-08
7.45276e-06
6.29649e-28
1.9752e-10
1.306e-07
4.79357e-18
1
7.65611e-16
1.28451e-11
7.4547e-10
1
1.79525e-35
3.72082e-11
1.22518e-13
7.13269e-05
0.999334
0.000745711
4.16554e-12
0.0542678
0.999741
2.06439e-08
0.993524
1
4.23242e-15
1.09246e-07
0.00274945
3.04961e-18
8.1892e-25
3.74775e-12
7.7348e-11
7.75263e-13
1.30131e-11
1.63146e-10
7.28447e-29
0.998917
1.12752e-21
0.999987
0.00782938
0.0838318
4.98849e-07
0.999059
1.021e-08
1
7.05042e-05
1.71173e-14
6.09327e-30
1.04291e-13
1.63885e-12
1.1196e-18
2.21578e-08
2.23733e-09
0.0017222
1
6.1859e-27
3.11205e-16
0.123937
0.999995
1.20215e-07
1
4.63875e-13
6.02336e-12
9.12355e-11
1
2.85732e-20
7.64988e-16
8.34357e-06
1
7.50761e-18
0.000701972
0.801678
1.85751e-20
1
1.68688e-09
-7.28758e-15
-3.42217e-39
1.79862e-13
3.31225e-17
0.00290122
-4.06816e-13
9.33118e-14
0.999994
0.00514691
1.14189e-19
2.7806e-17
2.86594e-17
0.000177158
0.000248719
3.0444e-12
1.56732e-13
3.14877e-11
4.82229e-13
0.999999
1.01516e-09
3.43641e-10
1
2.31226e-20
5.55913e-10
1.39102e-12
2.80986e-16
0.000603142
2.87616e-11
4.51842e-10
4.20572e-34
6.50186e-18
6.69946e-14
0.998454
5.96195e-21
2.46311e-30
8.8231e-12
1.40619e-18
8.51579e-11
1.09481e-07
1
1.69033e-20
0.000194978
7.75485e-19
-2.16658e-32
3.84082e-05
-6.46706e-36
8.19609e-23
4.41112e-19
2.13225e-23
0.999262
1
1.23005e-15
0.0228381
2.15307e-06
0.970943
1.18311e-14
4.70071e-14
1.81293e-14
1.11197e-22
1.46978e-20
-1.08146e-14
3.31033e-31
2.86923e-22
1.44557e-11
1.95111e-19
1.4473e-10
1.07302e-19
1.24522e-12
-7.1361e-13
6.66625e-14
1.3854e-16
2.86847e-32
1.29287e-26
3.79229e-06
8.52957e-20
6.03957e-20
6.92764e-23
1.28531e-34
2.38468e-36
1.06904e-06
1.70476e-13
6.42543e-15
1.35938e-10
-1.09334e-12
0.999851
8.65417e-32
2.83491e-25
3.90822e-12
1
1.56872e-20
1.18078e-14
2.39393e-35
1.56447e-13
1.48983e-07
3.96529e-26
7.08568e-22
2.91588e-11
3.56172e-34
1
0.29521
2.92358e-05
5.96051e-07
0.999998
3.99507e-31
0
6.20622e-37
4.43626e-15
1.52317e-25
1.69372e-23
1.41533e-20
2.51515e-15
1.50729e-13
3.63285e-21
7.70814e-43
6.6342e-13
6.44294e-22
1.39103e-13
0.0340634
9.91237e-22
1.23439e-11
4.33357e-14
0.00239867
3.44191e-24
-3.30744e-14
0.00031499
1
3.94154e-21
1.41694e-30
7.80804e-33
1.69159e-13
6.09115e-30
1.77345e-20
4.71305e-15
1.08115e-30
-8.03373e-14
0.0151139
6.57277e-14
5.86834e-25
1.39251e-11
9.4735e-29
7.168e-16
1
2.3287e-35
1
1.71221e-25
0.840528
8.78298e-16
2.09091e-33
9.14167e-22
1.55618e-21
6.8617e-17
2.40914e-11
1.71014e-28
6.09159e-17
-8.7958e-13
5.45677e-22
2.79374e-23
1.1994e-37
1.63026e-13
3.06339e-23
5.12487e-05
1.18372e-21
2.25618e-06
7.47842e-35
3.33208e-38
6.47213e-22
1.33489e-15
0.99999
1.54992e-26
1.81665e-23
0.99999
-9.38504e-13
3.01136e-12
7.88353e-06
1
2.26192e-16
1.13669e-36
-1.82692e-35
7.75617e-27
1.97747e-16
4.15203e-35
6.80176e-40
1.57726e-22
3.7515e-26
1.66288e-32
9.35657e-34
5.14151e-34
0.00101976
0.00226378
7.23235e-34
1.06795e-23
2.76776e-06
5.15148e-23
-1.2922e-13
2.47766e-38
2.5681e-34
1.16788e-31
1
1.40772e-22
4.84527e-24
4.26049e-12
5.45451e-26
0.000266328
1.30559e-44
1.55118e-25
1.33059e-29
3.29066e-23
-8.43113e-14
8.81022e-06
1.95935e-13
5.41734e-36
6.38013e-18
3.69156e-36
9.00887e-38
3.18274e-25
3.66441e-18
1.64851e-16
1.45589e-39
1.30252e-24
1.16703e-23
1.64582e-13
-1.20701e-13
4.38916e-19
2.1884e-19
0.999035
1.24949e-09
1.70592e-29
1.06346e-23
1.25361e-22
5.89864e-17
1.30003e-24
1.25103e-12
3.49224e-07
3.26984e-41
1.29547e-17
1.98788e-13
2.08906e-05
7.10278e-28
2.67157e-24
1
3.66886e-11
9.35991e-06
-4.59583e-13
5.53921e-36
1
1
1.89521e-38
1.88522e-05
7.22823e-35
6.50886e-39
1.62749e-37
6.13995e-25
7.89548e-34
1.86831e-13
2.80049e-11
1.87884e-13
1
1
1.52767e-28
3.78246e-25
6.24057e-07
5.06099e-38
5.02897e-13
4.61104e-12
1.63026e-13
2.23237e-07
0.999999
4.95808e-25
-4.01727e-13
-4.76258e-37
1.08274e-32
2.67205e-37
0.384668
2.94143e-39
1.90401e-12
2.93319e-05
1.83805e-22
4.90478e-16
9.69251e-27
3.52011e-40
8.62762e-18
5.67857e-39
1.18673e-16
-3.42247e-10
7.45754e-28
8.94305e-24
1.22479e-13
1
1.46946e-30
2.22372e-26
0.999042
7.57448e-18
-4.37183e-12
2.76878e-22
6.85594e-41
2.24488e-08
5.28203e-43
2.53554e-24
7.13586e-20
-1.43539e-31
8.60335e-25
1
2.07844e-26
9.31598e-18
1.18926e-20
1.09931e-05
1.24181e-11
2.47761e-26
4.06934e-30
2.45012e-25
6.71681e-14
0.000141459
4.24944e-26
7.35132e-40
3.09433e-20
3.12455e-08
1.21522e-20
1
-7.00862e-14
2.14025e-13
2.20433e-08
1.21607e-29
5.69628e-19
0.999899
3.58498e-12
1.8315e-41
4.07455e-22
1.82985e-14
1.97859e-42
1.04013e-37
2.18483e-08
1.69387e-24
1.00567e-26
3.20313e-19
5.42913e-36
1
2.81389e-38
-7.81134e-14
1.92529e-40
6.8132e-42
6.93628e-27
1.72308e-34
1.63445e-45
9.83605e-29
2.59463e-29
-5.53612e-35
2.88154e-39
2.90774e-14
2.83412e-27
4.9446e-41
3.01619e-05
1.73154e-21
6.64726e-12
2.24738e-40
3.53159e-26
2.39944e-05
3.50327e-34
2.25304e-16
1.18088e-14
8.70965e-14
0.902953
-1.30305e-13
4.5423e-42
1
5.70714e-32
7.7275e-42
2.4101e-28
2.97513e-28
4.9939e-28
1.05918e-07
7.55367e-05
0.000148088
-1.25748e-31
-1.00061e-13
9.83818e-19
6.21442e-41
8.38173e-16
1.21862e-15
3.527e-30
2.92933e-32
1.22521e-41
2.28325e-44
1.79247e-32
1.91378e-22
2.15253e-42
1
1.74407e-22
2.57593e-13
1
4.07675e-26
7.41176e-09
5.09278e-38
1.0378e-28
3.45088e-31
3.4739e-16
0.00223168
8.01729e-29
1.42024e-30
5.84063e-14
1.56043e-25
2.5019e-39
5.87754e-06
1.05888e-19
5.73288e-40
-5.03934e-42
1.32235e-37
2.12255e-22
1.12772e-28
3.01093e-29
2.37256e-14
1.69537e-43
1
5.83953e-36
1.28311e-23
5.84231e-45
4.10982e-28
-6.90163e-30
0.00791758
7.00736e-05
2.02574e-43
1.18099e-07
4.87194e-13
4.75034e-43
7.71143e-06
3.54296e-06
1.3569e-22
3.31782e-09
-2.80092e-14
3.8105e-44
3.27357e-18
1
6.15269e-30
3.02191e-46
1.58919e-35
3.97921e-44
2.21516e-41
4.25858e-43
1.86539e-27
-7.21161e-19
1.44089e-43
6.27822e-14
6.75311e-20
8.06163e-10
1
3.3287e-30
2.11716e-17
2.68898e-30
-2.68659e-14
1.16267e-33
1.34544e-49
3.69274e-20
1
1
8.56769e-23
1
-6.26577e-24
1
9.80443e-45
0.999993
2.75839e-45
-1.71179e-42
-2.25067e-14
1.44842e-33
3.14423e-18
6.99739e-40
9.23361e-31
2.54161e-16
1.30728e-41
1.35097e-43
4.97471e-41
1
-3.91793e-45
8.58749e-07
1.33132e-33
1.18811e-30
5.72307e-39
9.90488e-15
5.84011e-46
8.63874e-28
6.63065e-06
7.79097e-27
2.07766e-07
1.35611e-15
0.999284
2.41848e-41
2.27031e-41
-2.85303e-32
1
6.12747e-20
5.22277e-30
1.24229e-33
1.20471e-46
5.02555e-32
1.61512e-14
1.00428e-31
5.64313e-08
-6.76246e-42
7.86757e-31
1.46212e-06
2.8349e-10
8.6287e-37
1
1.94323e-07
3.7003e-36
1
3.70122e-45
4.00659e-48
3.09777e-32
0.47819
8.242e-23
1
6.7768e-20
2.74091e-31
8.33873e-19
3.26339e-45
1.39211e-19
7.38126e-37
1.65449e-17
1.77285e-29
4.08498e-24
1.15086e-38
6.4965e-21
1.16471e-45
8.95059e-23
6.9095e-33
1.91573e-47
2.28088e-47
8.73589e-20
4.34574e-45
1.70607e-13
2.24538e-32
-1.46826e-43
9.22107e-35
1.60669e-42
4.9683e-05
1.0345e-51
-6.42158e-15
0.662684
2.69716e-10
4.9698e-19
1.31227e-44
3.09628e-41
0.999998
4.07226e-32
1.12394e-44
4.48024e-34
1.43239e-46
1.56791e-32
5.99216e-22
7.25992e-47
9.58598e-18
2.40472e-10
2.09757e-45
8.8294e-49
1.35959e-31
1.17937e-32
-2.21217e-21
6.54126e-05
3.44896e-49
1.95656e-36
3.69002e-49
0.999999
7.45683e-30
-2.37499e-48
-8.60979e-24
1.88769e-40
1.72796e-20
6.67152e-22
-5.50077e-15
6.69532e-33
3.97372e-30
-6.06936e-27
3.27533e-34
1
2.37839e-13
1.08721e-28
3.08012e-05
1.65068e-44
1
2.43348e-33
5.71511e-47
0.999924
5.78429e-53
3.5387e-38
6.77962e-50
2.28345e-11
1.26609e-48
2.30084e-47
6.50357e-35
8.77924e-14
0.000882772
-6.77309e-43
-1.40842e-43
1.32588e-33
1.55616e-31
5.48842e-47
7.97223e-32
1.88099e-44
6.09099e-22
0.946974
2.14055e-34
-5.8498e-25
-1.35935e-44
3.73064e-38
8.04753e-39
1.55351e-22
1.79272e-48
3.01132e-39
3.7183e-46
1
1.55616e-31
2.03851e-15
-1.49782e-27
2.15394e-51
-5.8415e-21
4.17452e-44
8.90696e-35
0.000106581
3.84788e-05
-1.78613e-45
2.33176e-36
1
1.08326e-19
8.28392e-24
2.63549e-13
1.31883e-25
8.46361e-23
4.53786e-50
1.60108e-36
1.28603e-48
2.12812e-43
3.7403e-34
-4.1541e-53
1.14409e-07
3.13204e-53
9.54035e-35
5.56025e-48
1.04426e-50
7.33594e-13
3.24564e-08
4.31358e-31
8.69046e-07
2.50513e-25
-1.67264e-51
2.77953e-37
1.87905e-52
5.26352e-23
3.04621e-47
1.1879e-33
8.56292e-42
1
4.58613e-35
1.85691e-50
0.00193469
4.11508e-32
6.87789e-06
8.85622e-24
9.13218e-49
1
0
1.92495e-35
4.77342e-18
-7.23754e-25
-1.13548e-51
-2.24096e-43
1.86605e-39
-1.76537e-48
-2.80515e-25
7.20584e-13
1.52763e-36
7.06484e-05
7.61647e-48
0
1
-2.43347e-55
3.9649e-50
4.79686e-49
5.87372e-06
7.3441e-49
7.56673e-52
4.51215e-34
7.40067e-37
-8.45469e-47
2.82172e-50
1.35523e-38
1
1
1.06211e-36
6.53815e-16
2.95795e-53
6.63912e-17
1.7885e-38
6.11363e-37
1.70123e-05
1.80985e-36
3.86855e-52
5.60657e-54
4.90234e-26
1.45921e-45
8.88721e-27
7.35608e-36
1.69951e-55
3.38611e-37
6.94016e-09
2.78106e-47
1.88252e-11
3.1766e-30
1
2.08917e-39
1.14666e-25
3.10015e-50
0
1.99524e-31
1.55616e-31
-9.19364e-52
8.20383e-50
1.34221e-37
6.26969e-44
2.30108e-38
2.38673e-51
-3.27678e-37
0.649143
7.24179e-13
1.607e-13
-2.28576e-56
1.01637e-38
8.89808e-55
0.999999
1
1
2.25901e-36
3.72423e-25
8.00477e-51
-6.68843e-29
-4.60511e-30
3.59421e-39
1.69679e-11
1
1.48733e-43
3.68443e-34
2.31323e-49
1.29397e-17
4.35757e-52
1.09949e-50
-7.70219e-50
1.78233e-15
7.88242e-52
4.61946e-52
7.3828e-56
3.20545e-41
-1.28637e-44
1.74713e-26
3.66645e-41
3.20383e-10
5.35796e-14
2.41708e-49
-4.5968e-44
3.59222e-54
5.02551e-39
-5.3507e-60
3.02608e-35
3.15591e-39
1
1.18174e-27
8.34805e-13
1.67233e-50
2.33343e-48
4.59004e-15
-2.38527e-29
9.00887e-51
9.85109e-27
5.7222e-42
1.93352e-39
2.58281e-55
-4.21016e-55
1.65019e-25
5.12966e-57
9.02929e-40
2.08738e-47
0.999998
-1.41706e-52
6.39831e-41
0.002065
1.74147e-34
1.13375e-38
3.87684e-14
2.62851e-56
1.97599e-52
-1.58994e-60
2.46014e-41
6.30468e-56
0.99982
1
7.92409e-46
-1.85693e-53
3.17042e-48
2.97777e-08
9.7631e-57
7.80705e-31
2.49726e-41
4.67363e-43
4.87871e-38
0.779822
-1.19809e-55
3.28149e-16
1.57899e-38
-1.48008e-53
5.67109e-54
2.51749e-53
2.57902e-29
1.48592e-52
6.75311e-20
6.75456e-20
2.19426e-17
6.84569e-34
8.28183e-44
-4.14212e-37
1.90712e-41
-7.80697e-52
-5.72002e-55
1.66705e-36
1.26406e-52
1.95666e-30
2.37746e-26
1.21861e-06
-6.36063e-60
1.13513e-41
2.24663e-06
3.9171e-14
4.12078e-58
8.22147e-54
2.17004e-51
4.37743e-42
2.76494e-41
2.76143e-51
2.48517e-27
5.07839e-21
8.32529e-35
2.45451e-43
1.61423e-59
1.54929e-19
5.09876e-32
3.55036e-37
2.1841e-44
8.93722e-07
3.34983e-50
7.15818e-44
1
1.55892e-06
-1.70274e-62
5.34147e-15
6.37687e-53
1.52299e-57
2.11038e-50
1.29859e-40
1.43772e-30
2.76406e-58
1
8.21837e-57
-6.55441e-62
2.50284e-23
5.47516e-07
1.15978e-50
0.135142
6.57884e-33
2.63962e-58
5.51716e-14
7.72532e-47
-1.72263e-45
2.78521e-41
3.24103e-41
3.07171e-31
2.74732e-17
9.62177e-56
-8.95515e-55
1
0.999998
2.09093e-54
1.10389e-55
1.73262e-39
3.80907e-54
2.4775e-40
0
9.53333e-44
1.13108e-31
-1.2078e-47
-8.69816e-58
-4.95226e-56
7.70971e-13
8.08583e-44
0
1
1
6.96337e-60
1
3.06814e-55
5.4141e-44
3.29767e-38
9.04759e-58
9.25177e-55
-8.39693e-56
9.45331e-44
-1.17859e-58
2.37861e-44
-1.21971e-53
1
9.3768e-14
2.28719e-60
1.42918e-45
5.15779e-51
2.31806e-35
1.48273e-54
4.9376e-06
1
4.86851e-61
3.14321e-47
0
2.37733e-05
2.35383e-05
-1.95416e-56
1.17853e-54
3.54905e-46
1
1.13216e-54
2.35747e-38
1.14597e-40
5.62726e-15
1.78492e-12
2.21802e-26
-8.59453e-53
-1.37967e-57
-1.19314e-38
1.12178e-62
2.73358e-61
2.87172e-62
1.06633e-43
2.36017e-60
3.78748e-46
5.16922e-51
1.27867e-57
-2.80283e-59
6.47442e-33
4.75013e-35
4.94919e-55
3.61525e-48
1.52821e-59
4.38716e-46
1
-1.41933e-60
3.56959e-46
1.93331e-59
1.98552e-46
1.70965e-57
1
1.51622e-26
1
1
5.68737e-62
3.44545e-56
7.17788e-47
2.48912e-25
1
1.37869e-54
4.3001e-45
8.08748e-43
2.14037e-48
2.17754e-46
-7.53354e-39
-8.23748e-75
9.60813e-24
3.95944e-37
1.54626e-41
5.12338e-14
-1.43004e-57
9.66662e-57
1.44359e-61
1.19298e-42
1.80806e-35
4.21054e-15
6.27252e-62
3.98433e-64
1.11786e-31
4.0824e-58
7.70335e-13
-2.90015e-58
8.80369e-57
-2.89799e-57
1.09972e-58
2.10171e-61
1.61711e-48
1.97193e-59
1
-6.25634e-60
1.02741e-41
2.39538e-64
7.20542e-64
-5.19872e-60
-1.89494e-51
1
-3.00899e-59
-1.32867e-56
1
1.01256e-57
5.83519e-60
9.07303e-14
1.59138e-61
0.999983
4.60586e-47
4.30575e-64
0.0929371
0.998142
1.83968e-07
1.05981e-58
-1.74365e-39
0.999934
6.24614e-42
2.86975e-63
-2.28615e-58
2.13244e-17
1.19608e-66
2.31218e-61
5.84334e-62
-4.47103e-52
-8.04107e-62
1
4.51504e-65
-3.91456e-39
1.39533e-43
-2.37092e-62
6.55981e-60
1.03456e-45
-6.34458e-63
-6.69367e-59
-1.82667e-38
2.03032e-26
1.95484e-39
1.65058e-58
2.24663e-06
1.83409e-06
1
5.18036e-45
2.25965e-65
1.3508e-29
4.36132e-63
2.24088e-63
1
3.95977e-64
-1.99013e-56
1.4017e-66
3.50156e-46
5.17529e-17
4.31505e-07
6.87853e-64
2.18171e-65
2.91289e-13
2.76068e-05
0.000751335
3.94014e-37
1
6.58037e-66
1.745e-39
-7.68377e-66
1.39823e-58
-1.03626e-61
9.90317e-66
1.44153e-58
4.3742e-65
0.886179
-2.09087e-61
1
1
-4.66667e-57
8.49984e-67
1
7.70985e-13
-3.26329e-62
2.95987e-43
0
2.60318e-49
8.38e-45
5.88704e-49
-2.21993e-61
8.6551e-36
1
1
1.00861e-48
2.37711e-51
1
1.76158e-65
-1.55424e-60
1
1.28104e-48
1.58416e-65
6.68372e-49
-1.73825e-23
1.80045e-07
1.92341e-49
5.04659e-57
0.290703
1.2268e-67
2.76005e-67
1
1.82692e-12
1.12169e-50
-1.30525e-61
9.61724e-42
-1.86428e-62
-1.68149e-60
2.23597e-67
8.62035e-63
1.02845e-68
-5.78505e-60
5.95184e-15
-2.01034e-64
1.12153e-49
4.14776e-68
1
-3.15188e-66
0
-1.48111e-62
3.66769e-39
1.17003e-06
1.12172e-31
1
1.51524e-51
7.25511e-52
-4.62383e-39
-1.26396e-65
-1.40742e-60
4.12077e-68
7.55529e-45
-1.71308e-68
-3.9367e-61
1.73628e-12
1.81887e-31
1.65917e-61
1.54176e-45
2.15669e-70
2.75367e-15
9.04579e-70
1.24931e-68
1.04069e-68
1.26762e-66
9.95751e-48
-3.43258e-64
-8.65266e-65
5.26048e-47
-3.96531e-64
1.06431e-61
1.58509e-13
6.04716e-69
-2.22116e-39
-5.88456e-62
1.12948e-54
1.37882e-71
-1.54062e-64
-2.55657e-63
5.77787e-46
-4.73033e-64
4.61185e-61
5.56173e-70
6.87864e-69
1
-5.36722e-63
6.783e-14
-2.07046e-63
2.10061e-61
-2.85513e-65
1.09081e-71
1
2.66934e-62
1
-2.53587e-60
1.33465e-48
-2.93479e-65
1
3.07412e-68
1.80454e-69
5.17538e-13
-1.28064e-62
1
-1.06832e-65
-2.07572e-70
1
1.73658e-39
8.75873e-36
3.62721e-07
-2.94871e-67
-2.53222e-39
2.1437e-45
1
0
-9.81588e-40
3.37947e-46
-7.01048e-63
2.97711e-44
-6.79017e-67
-3.65211e-67
1.90075e-72
-5.95818e-67
-7.08368e-61
9.53855e-42
2.30703e-22
-2.02797e-59
-1.6134e-68
-6.25751e-66
6.98978e-26
-1.52048e-67
1
8.1835e-50
3.71012e-70
1
4.6052e-49
3.01945e-70
8.51891e-49
-3.49899e-68
-1.29502e-64
1.19513e-48
-4.15542e-64
6.26867e-74
9.7681e-49
-1.40656e-68
1.80218e-30
1.07202e-47
5.04063e-49
1.27251e-49
-2.9083e-66
5.36106e-17
-6.63693e-70
5.52729e-64
-1.44581e-64
-5.41149e-70
1.32556e-71
1
8.09209e-06
1.60041e-05
6.73517e-51
-1.19213e-66
-4.00155e-67
-2.72015e-70
1.32755e-72
-1.10662e-68
1
2.24817e-71
-2.78195e-70
-5.89044e-70
1.45758e-71
4.35462e-49
1.00524e-46
1
3.52154e-53
3.16336e-73
1.52396e-72
1.745e-39
4.91366e-22
-1.22304e-71
-1.10899e-71
-2.57712e-39
-5.43129e-69
8.44599e-49
1.06526e-47
-2.72798e-68
-1.31864e-71
2.13868e-46
1.38265e-66
-1.55384e-63
-5.09361e-73
3.74967e-65
1
2.15669e-70
2.15669e-70
0
3.4796e-46
2.0866e-21
-1.69152e-64
-4.40841e-73
-2.58905e-71
1.25057e-51
1.31784e-25
-2.33473e-70
1.06431e-61
-3.50115e-73
3.23889e-46
1.23078e-58
0
-7.73827e-65
2.68318e-54
-1.61662e-41
5.08664e-57
1.06431e-61
1
1
1
-3.82421e-39
-8.1267e-72
-8.2427e-75
-2.76729e-73
2.47219e-71
-1.45817e-73
1
2.96712e-44
1.32173e-13
-2.85468e-76
1.29845e-61
-7.3424e-67
-1.03322e-73
4.70547e-46
-4.67852e-75
1.20308e-72
-1.40179e-68
1.36406e-13
1.33447e-13
2.6321e-14
1.67577e-47
-4.69352e-66
3.41041e-21
-2.75138e-76
1.03859e-45
-3.02191e-66
5.90112e-75
5.44629e-74
1.701e-73
1
6.13951e-59
4.66849e-61
9.22983e-49
-7.66177e-75
6.48802e-73
2.97711e-44
8.43498e-59
-1.55816e-76
-1.03772e-74
4.27615e-70
-8.40936e-77
3.13433e-74
-1.7648e-70
4.78717e-66
7.25511e-52
2.06785e-71
1.78242e-24
-3.58683e-72
4.41231e-72
7.25511e-52
-2.94809e-78
1
-4.29987e-78
5.33039e-75
-1.27338e-79
3.96677e-17
-3.89232e-70
1.48553e-50
9.79658e-53
1.21673e-51
1.54468e-61
1
-2.45528e-67
2.53367e-56
5.31867e-49
1.21632e-51
-8.37174e-80
-6.33819e-75
3.16336e-73
2.25337e-48
4.74269e-66
-2.42797e-75
1.43111e-51
-5.04685e-80
8.4822e-30
1
1
-1.28758e-81
7.16284e-51
3.50071e-56
4.15177e-51
8.5821e-06
-5.2089e-77
-1.02376e-71
1.92918e-61
1.72308e-76
-7.77101e-79
2.15869e-61
-1.32578e-67
3.80614e-65
-3.03539e-83
-1.76666e-83
-1.70595e-78
-1.00632e-73
3.41108e-21
1.78289e-24
-1.57973e-64
4.20388e-28
-3.41216e-77
-4.09525e-82
-1.69816e-85
1.00458e-46
-7.39808e-82
2.15869e-61
-7.5559e-77
1
1
3.3661e-70
-3.09635e-87
9.51157e-53
1.78842e-75
1.18413e-74
4.78717e-66
8.79881e-52
1.89134e-76
4.23329e-52
-5.24391e-72
1.29939e-58
2.53347e-56
-1.48228e-85
4.2039e-28
-6.91594e-80
6.7551e-14
-2.53747e-68
-2.00935e-80
1.75685e-56
-1.55186e-78
-1.30302e-69
-5.64599e-71
1.60354e-53
3.66155e-15
2.41886e-61
1.99253e-32
-4.01545e-83
-2.53411e-76
-8.73664e-84
-1.48863e-89
-1.26865e-86
2.43022e-73
-1.35493e-78
-9.2352e-77
3.08846e-70
3.68433e-51
9.47955e-66
-2.48005e-87
-1.84951e-90
1.39745e-55
6.49697e-59
1.99298e-32
1.98264e-79
1.54088e-79
2.28617e-75
4.70654e-78
3.00523e-38
-1.24146e-78
-1.71655e-91
-9.20672e-92
2.83047e-62
1.44095e-57
-2.22873e-75
3.0057e-38
-7.21955e-95
-9.6983e-93
-1.23544e-88
1.49449e-63
0
-2.09598e-78
3.63964e-76
1.01721e-53
-1.51388e-81
1.72454e-45
1.72441e-45
-6.20229e-85
1.20475e-13
6.56694e-63
2.05701e-63
1.01847e-64
-4.99952e-65
1.48998e-63
1
1
2.82363e-62
1
2.78285e-66
1
-1.6975e-83
-4.87076e-85
8.28698e-81
-6.21086e-82
-2.39371e-80
2.3415e-71
-2.45575e-88
-1.11178e-86
2.25073e-69
1.05788e-71
1.95318e-67
1.95431e-67
2.64756e-78
7.0148e-63
3.63503e-65
9.46085e-71
9.45729e-71
3.04563e-66
-3.39194e-101
-1.24779e-98
-4.65461e-96
-5.30011e-94
-3.86876e-90
-5.89859e-92
2.28726e-75
-8.65586e-65
0.99975
2.00493e-62
2.07431e-70
1.95431e-67
3.66162e-51
1.92581e-55
1
0.662343
1
4.08918e-56
3.2123e-53
7.32935e-18
6.41375e-16
1.04107e-47
4.08918e-56
0.652997
0.99601
1
1
2.68284e-54
1
2.99307e-19
0.289484
1
9.8471e-15
1
3.99943e-07
2.20935e-06
1
1.98561e-18
2.12359e-17
1
1
1
1
1
1
1
1
1
5.80274e-05
7.52074e-08
7.52074e-08
1
5.63803e-07
5.80106e-19
2.22492e-06
8.4938e-08
8.07771e-08
1
1
1
0.998946
0.809738
0.0273434
0.999998
0.870564
1.80045e-07
1
1
1
1
1
1
0.616137
0.406911
1
6.32808e-08
0.0198053
0.114934
0.961593
7.52074e-08
4.13035e-08
0.000605209
0.071331
2.62106e-05
8.77858e-09
6.20411e-05
0.046822
1.30986e-06
1.97727e-07
0.162699
0.000678969
7.99259e-08
4.50034e-07
3.56082e-12
2.57278e-07
7.97377e-10
1.98397e-18
8.31596e-05
5.41681e-12
0.000153824
0.247482
1.80045e-07
2.90123e-05
7.26744e-11
2.13667e-12
0.012769
0.0428163
0.977536
1.23876e-11
3.20206e-05
0.150294
-1.11799e-14
4.89427e-12
0.00145453
3.38089e-13
0
0.998586
3.07635e-16
0.933832
0.774826
0.320502
0.260259
7.82406e-15
0.97888
0.999998
1.09921e-11
)
;

boundaryField
{
    patch0
    {
        type            zeroGradient;
    }
}


// ************************************************************************* //
