/*--------------------------------*- C++ -*----------------------------------*\
  =========                 |
  \\      /  F ield         | OpenFOAM: The Open Source CFD Toolbox
   \\    /   O peration     | Website:  https://openfoam.org
    \\  /    A nd           | Version:  8
     \\/     M anipulation  |
\*---------------------------------------------------------------------------*/
FoamFile
{
    version     2.0;
    format      ascii;
    class       surfaceScalarField;
    location    "0.15";
    object      alphaPhi0.water;
}
// * * * * * * * * * * * * * * * * * * * * * * * * * * * * * * * * * * * * * //

dimensions      [0 3 -1 0 0 0 0];

internalField   nonuniform List<scalar> 
2805
(
-0.000824978
0.000694519
3.43879e-05
-1.95518e-08
-0.000796112
-6.4261e-08
4.94153e-08
-3.23655e-08
-6.78501e-10
0
-2.59375e-08
2.54805e-09
0
-1.57813e-09
2.89415e-09
-1.13762e-10
9.24218e-09
-7.08562e-10
6.55586e-09
3.39506e-09
5.00081e-08
5.1625e-09
1.22229e-09
-1.98033e-11
0
6.40406e-11
2.12083e-06
-1.2123e-05
-6.50512e-06
5.01831e-13
-3.02081e-13
-1.27405e-25
-5.35573e-22
1.40047e-22
-1.27889e-25
1.34772e-28
1.15954e-07
1.23383e-06
4.02485e-15
4.52624e-13
-0.000908976
0.00158137
8.46958e-15
-3.12292e-15
8.39576e-05
6.05367e-05
-0.000247328
8.51544e-20
-9.73481e-19
-5.44016e-19
-2.31539e-09
3.63388e-11
1.95436e-09
9.03616e-16
1.74644e-14
9.49401e-22
1.13578e-22
1.81625e-25
-3.29979e-24
4.76776e-25
8.51131e-24
-7.52958e-23
-3.21536e-06
-0.000734441
0.000749808
5.65777e-09
-3.25273e-09
-4.8786e-09
-6.61613e-05
-0.0012638
0.00132996
-3.63714e-09
-7.15547e-10
-4.70289e-22
1.71195e-22
1.29892e-06
7.93648e-08
-1.42039e-06
3.21609e-08
0
-3.19686e-06
2.15022e-09
-1.06859e-11
7.12255e-12
1.41182e-20
-1.29173e-19
-4.09812e-09
7.2904e-09
0.00110578
-0.00117194
1.52352e-09
2.24065e-23
-2.58026e-22
0.000161601
-6.66078e-05
8.0224e-27
1.64985e-09
-1.32462e-09
-0.000149224
0.00113332
-0.000984632
8.09083e-08
1.59413e-08
-2.04005e-07
0.00198381
-0.0018539
-0.00012803
0.00133999
-0.000544137
-0.00079364
0.000457165
-0.00106289
0.00022618
-0.000125501
0.000108808
7.64535e-06
8.99727e-12
-8.91041e-12
-8.8451e-14
9.71995e-05
-2.67191e-17
3.95463e-19
1.22372e-16
8.99626e-12
3.89767e-08
-4.26752e-08
1.78509e-09
-3.14379e-06
0.00107337
0.0011912
-0.000286733
0.00142491
-4.07349e-30
-2.30592e-32
7.78897e-31
1.61704e-09
4.56949e-12
-4.78507e-31
-1.45267e-25
7.01287e-10
0
-0.00128447
0.00087608
0.000408393
2.12715e-16
-2.0609e-16
-0.00126263
0.000721465
-2.88145e-32
1.71449e-32
-1.25451e-34
1.16103e-13
-1.31112e-11
3.19047e-08
-7.04028e-10
7.02781e-10
-1.84592e-12
-4.32425e-09
7.28527e-10
-4.81546e-31
7.84752e-34
-0.000178698
-0.00155155
0.000287758
-0.00114254
-0.000408995
2.69919e-09
-5.61404e-09
1.29616e-09
-0.000790336
-0.000446609
-0.00149493
0.000352496
-0.00172616
0.000932761
-6.71258e-12
-1.28515e-10
-2.72461e-16
1.2855e-10
5.95919e-26
1.04496e-25
-0.00122485
0.000632902
0.000591949
8.05726e-05
-7.79586e-06
3.54583e-05
1.26808e-14
2.65508e-16
-0.000977394
-5.49213e-21
4.29236e-21
-2.77115e-05
2.96492e-07
-2.68705e-07
-7.55137e-30
7.21469e-30
2.46038e-27
-6.63292e-29
3.35508e-08
5.03433e-10
-4.42309e-09
-5.06647e-10
-9.3668e-06
4.00109e-06
-9.94077e-18
1.52912e-16
-0.000723985
6.35665e-05
9.35373e-09
-4.64626e-08
-1.29052e-28
-2.02692e-29
0
1.8385e-09
6.60152e-08
-3.78222e-09
-3.1059e-08
6.62553e-05
5.9057e-28
-9.82705e-27
3.67289e-29
1.39974e-27
1.82845e-11
1.35048e-10
-4.94488e-05
0.00130838
4.82293e-05
4.97678e-09
-7.59328e-09
1.52493e-10
2.44244e-11
-4.8317e-11
7.12704e-34
-2.4048e-32
1.45418e-08
-0.000476295
1.16009e-05
3.48706e-09
8.60799e-09
-3.24505e-08
0.000452697
-0.00121109
0.000758389
-0.00130865
-0.000416555
2.81788e-10
-7.68002e-06
3.22433e-08
1.33711e-28
-5.56101e-34
2.24223e-21
-1.45817e-19
-1.41841e-20
-0.00173254
4.80512e-08
3.37039e-05
-0.00448741
0.00442616
6.12424e-05
-0.000211196
-1.17053e-08
1.11209e-32
2.39487e-36
-1.5575e-12
2.12015e-12
-3.77276e-12
-8.42501e-09
-2.63799e-10
-0.000220614
-0.00127303
2.95638e-09
-0.00133299
0.00356804
-0.00223505
-3.08751e-05
-2.45745e-05
8.60515e-10
-5.01935e-10
-1.64508e-12
3.69165e-10
-0.000772154
0.00012366
2.062e-10
-7.20919e-10
-2.71627e-09
2.17149e-08
-9.8031e-17
3.40936e-15
-1.68678e-08
-0.00010252
-6.50595e-31
0.00150549
-0.00150575
-7.09118e-07
2.85237e-07
2.5462e-09
-7.54633e-10
-0.0021708
0.000837811
4.65815e-12
0
-3.95864e-37
2.69649e-35
5.90658e-23
7.48915e-24
0.000191734
0.000441168
-0.00448742
-4.69177e-08
-1.21899e-08
7.92411e-10
-1.61999e-11
6.63444e-10
4.36086e-13
4.09493e-13
0.00407034
0.000355825
8.00335e-09
-3.0888e-05
5.74034e-08
-0.001036
0.00019953
0.000836467
-0.000341988
-0.000869098
3.02601e-10
3.18932e-11
-0.00452352
3.61029e-05
-0.00072889
0.000597661
0.000131229
2.99501e-11
8.46003e-14
-1.96451e-13
0.0014876
0.00258274
-0.000651983
-0.000391821
7.85538e-10
5.10478e-09
7.00118e-08
7.04784e-10
-4.39747e-11
-2.61584e-11
-4.17167e-05
4.40212e-31
-0.000105128
1.75714e-10
-1.14814e-11
-3.47043e-10
0.000987972
-2.00428e-09
1.6583e-09
5.57398e-12
2.67058e-14
4.57517e-11
-2.593e-12
3.17514e-14
-6.48907e-14
-6.56043e-15
9.4137e-32
1.33319e-28
-0.00147788
0.00103185
0.00044607
4.54305e-14
1.39709e-14
-0.000897702
-0.000396965
2.84109e-05
-0.00185903
-4.04879e-07
2.21535e-08
-2.80227e-15
1.62421e-15
-2.72558e-17
-4.45967e-05
-0.00131961
0.000450517
3.02299e-11
-7.02996e-11
1.91447e-11
-1.1089e-05
-4.2246e-08
1.22355e-12
8.87305e-15
-5.43193e-15
-0.00452352
-1.36998e-17
9.63052e-18
6.68639e-20
4.15757e-12
1.09541e-10
2.57249e-12
-5.88132e-13
2.2482e-10
-8.75217e-10
-3.7034e-06
6.8201e-12
-3.73907e-11
-1.19916e-12
2.02173e-11
1.50069e-14
1.24644e-12
-8.50799e-14
1.27159e-07
-1.06668e-06
0
-2.76301e-11
-0.00461322
8.96958e-05
9.17771e-11
-3.07568e-20
1.84545e-18
-8.01793e-19
1.44965e-15
1.1631e-16
4.40427e-17
0.00118127
5.44117e-39
-4.03234e-37
2.53993e-12
2.81795e-14
-0.00125235
-1.20276e-05
8.30457e-13
-0.000444048
1.05063e-12
7.05624e-22
-3.41349e-20
2.88515e-13
2.67147e-20
1.27801e-19
-4.55733e-08
-3.47838e-11
5.26578e-11
-1.84303e-10
1.4571e-11
5.51696e-17
1.30993e-15
2.21888e-11
1.04783e-11
-6.11285e-08
-2.09961e-10
1.03155e-30
2.18075e-30
-8.21739e-30
1.69998e-12
4.37976e-21
2.017e-21
0.00019953
2.45379e-18
7.46279e-20
2.41865e-14
-3.22019e-15
1.85887e-13
-1.60292e-14
-0.00461322
9.41373e-32
-3.70887e-37
3.31805e-14
-1.89508e-13
1.91462e-16
-1.87211e-16
-1.94017e-07
2.26594e-08
0.00196894
-0.000836468
4.59292e-06
-2.28374e-14
3.06858e-13
-1.88871e-05
-0.00112502
5.29929e-12
-0.000462664
-0.00307474
-0.00153848
4.7851e-17
-1.43783e-18
5.15394e-11
-2.03067e-07
-9.60307e-06
-5.13237e-21
2.99395e-21
2.23778e-27
3.44359e-29
-4.99959e-15
2.44112e-15
-1.5917e-14
2.14618e-14
8.08376e-16
1.39422e-14
1.65462e-13
-1.85956e-32
6.08575e-32
5.71394e-05
2.2185e-24
3.34842e-25
0.000844968
-0.00125391
0
-5.84586e-05
0.000570685
-1.36814e-09
1.1904e-09
0.00137651
6.29818e-12
-3.41963e-11
-0.000537156
-1.57655e-07
-1.29788e-16
6.11422e-17
-2.79312e-17
-1.7102e-32
2.69108e-33
0
-1.34517e-16
2.95731e-15
8.88539e-22
-1.84552e-21
6.93318e-12
2.70204e-12
-7.3088e-06
-0.00307474
-4.01645e-29
3.76551e-19
4.68126e-17
3.94518e-05
-0.000155493
-2.53489e-09
0
-0.00356804
0.0004933
6.45189e-16
-9.08704e-17
7.62866e-15
5.54504e-14
3.80932e-14
-0.00100191
-0.000170027
2.00002e-23
1.83789e-23
-2.96541e-21
7.59519e-19
-2.13978e-08
-0.000244064
0.000841725
8.1811e-22
-8.82738e-21
8.73289e-07
-3.96503e-06
-7.85625e-05
1.07866e-24
3.49416e-12
-9.84859e-18
9.98273e-19
-3.25258e-42
1.28846e-40
-3.89744e-16
3.16309e-15
-3.03083e-19
1.71442e-19
-5.88992e-20
6.20147e-06
-5.44618e-06
-5.05406e-16
-4.43736e-17
8.52711e-17
-0.00142897
-1.64193e-05
3.29285e-24
-4.16086e-22
3.56864e-19
-4.02107e-20
4.85062e-21
2.88359e-21
-1.97634e-19
-7.24089e-07
2.92556e-08
1.35401e-15
2.86371e-17
2.05482e-14
2.43382e-16
-0.000156938
4.64151e-13
5.32709e-13
2.6626e-13
0.000533397
-0.000777461
-2.28002e-22
3.84704e-24
1.03988e-12
-1.2162e-15
-6.50104e-12
1.05368e-15
2.3578e-19
-1.88309e-05
-4.17387e-15
-2.15817e-11
2.18744e-13
-1.294e-34
9.24188e-37
4.49857e-21
-3.39633e-20
5.7474e-17
0.00110792
-0.00111601
6.49783e-24
-1.77695e-23
3.79501e-33
3.02921e-15
3.34627e-15
1.21237e-21
3.52477e-19
1.39658e-13
0
0.000221232
-1.42366e-23
7.096e-24
3.22475e-08
3.65923e-08
1.56396e-22
-4.76054e-23
-1.84097e-36
5.57824e-34
2.63449e-36
-2.38226e-37
1.98803e-26
3.10752e-27
-1.61815e-25
1.3601e-26
-0.000640698
0.000771927
1.32191e-18
-7.70602e-26
2.14326e-05
5.3022e-09
-1.09637e-08
-0.000733502
0.00142969
-0.00209312
8.55579e-18
-1.82476e-18
3.87101e-17
-2.12309e-16
-1.46793e-20
8.346e-18
5.88303e-26
8.67164e-26
-2.56872e-23
2.99522e-24
-1.0624e-17
7.65957e-34
-2.29646e-34
1.9337e-26
1.08604e-14
2.73623e-23
8.339e-14
-2.98173e-13
1.39638e-21
-4.26051e-22
5.57312e-16
-1.14504e-15
2.91e-17
2.13223e-17
-9.33169e-19
3.36064e-36
9.40254e-32
-2.2177e-28
1.42626e-29
-6.79542e-09
4.06512e-10
9.16649e-25
1.53261e-24
-1.58027e-25
5.93521e-26
1.8546e-36
1.21209e-37
1.98859e-39
5.21343e-10
6.94379e-17
2.57944e-18
9.20412e-14
-1.20209e-15
-5.52261e-16
-0.00014553
1.34207e-35
3.25498e-31
3.85194e-15
1.07656e-23
9.44546e-24
5.24025e-18
2.45104e-37
-1.94937e-37
1.30765e-17
9.41176e-17
-3.66119e-28
1.48522e-28
1.87922e-25
-2.46528e-14
1.51173e-14
3.07832e-37
-0.00105085
-0.00111995
0.000544117
-2.04562e-08
1.04896e-08
-7.08973e-08
-1.10753e-10
0.0014876
2.86952e-34
-2.66242e-35
9.5522e-17
8.38508e-16
-9.3403e-16
5.75983e-40
7.04906e-29
2.02562e-26
-5.21034e-26
5.04964e-24
-7.33443e-23
4.57091e-19
3.50013e-18
2.2071e-16
1.0321e-24
1.38585e-21
6.76176e-44
-3.33003e-42
1.28058e-15
-2.72673e-16
1.86997e-24
-1.7097e-26
1.84251e-16
-8.12435e-16
6.4102e-17
-6.13103e-08
7.0586e-26
1.2072e-14
1.16597e-14
7.46806e-17
0
-4.7216e-27
4.54584e-28
-4.1961e-17
-4.20355e-26
-1.23412e-06
0
-0.00113202
0.000961996
3.76226e-25
1.07785e-24
-5.99873e-32
3.33173e-32
2.29342e-36
7.44744e-17
-5.57175e-34
6.3088e-24
2.65157e-24
-1.2346e-22
1.13245e-18
-1.47648e-32
-7.28227e-17
8.24787e-06
-3.99103e-08
-1.12792e-05
9.55044e-17
2.74982e-28
1.08492e-14
-7.39035e-31
1.68836e-31
2.55679e-19
0.000701677
0.000140048
5.87463e-39
-6.52242e-40
4.65879e-28
2.33248e-28
-6.19907e-05
3.59537e-19
6.8923e-37
-3.9451e-37
4.8346e-26
2.08374e-25
1.99786e-20
5.80987e-14
-8.11509e-14
1.70529e-32
2.1767e-20
-1.57592e-15
8.35509e-17
-4.24931e-26
3.56506e-26
-1.99513e-25
2.09792e-26
-6.10608e-41
1.44198e-39
2.97584e-16
-3.1015e-16
-2.7246e-26
5.21489e-27
2.14134e-08
5.70007e-08
6.7556e-25
1.03926e-09
9.50689e-10
2.45941e-38
6.59974e-40
-3.02694e-40
6.68689e-25
-1.29702e-24
1.63254e-18
-0.000496194
-4.60207e-29
4.70115e-30
1.35084e-25
7.80241e-27
0.000935815
-0.00109273
-8.42984e-16
1.06294e-15
-3.54569e-15
-2.75769e-11
-0.00108443
0.000905727
9.48635e-20
-1.33197e-20
1.84145e-40
9.75762e-41
-1.433e-39
3.71602e-37
5.83015e-19
3.52405e-20
3.19332e-38
5.5106e-43
1.77993e-26
3.82001e-30
-1.52586e-32
3.51294e-34
1.16655e-36
-1.57205e-40
-5.88248e-34
2.74813e-35
-1.47744e-07
0
-1.19716e-35
3.95613e-27
-6.07275e-08
8.59287e-26
-2.61211e-28
-2.67718e-16
4.88118e-16
1.76207e-42
4.35334e-37
-3.16308e-38
-3.34172e-34
-0.000281767
0.000815164
1.36599e-25
3.00026e-28
2.82156e-15
-1.31009e-28
2.70583e-29
1.47605e-07
-3.09595e-48
2.98135e-46
-1.7571e-26
2.63526e-28
-1.08057e-31
2.70542e-32
6.74656e-28
3.49575e-27
-1.23284e-16
-1.53885e-25
2.9011e-08
-3.11117e-08
9.81996e-17
2.72248e-39
1.9129e-21
9.17926e-40
-7.19898e-40
1.95354e-41
5.46048e-29
1.32085e-21
1.85876e-18
1.21198e-42
5.13948e-28
9.37203e-29
-3.72246e-29
4.13247e-16
-3.66892e-16
-9.29434e-17
9.26639e-23
7.63137e-23
0.00101241
-0.00115516
-5.52109e-12
6.70596e-12
6.27962e-33
8.90491e-28
6.31773e-25
8.34275e-28
1.54197e-26
8.08286e-21
2.67938e-20
1.36711e-28
3.92992e-16
1.00387e-14
1.59997e-10
-3.73957e-10
-3.17598e-43
6.52299e-43
3.57274e-21
4.93208e-17
5.87869e-17
-1.385e-30
9.4401e-32
-3.73987e-28
3.10927e-28
0.000558369
-0.000840136
-6.75889e-12
5.5731e-14
5.27039e-09
-8.86035e-16
8.04325e-17
-1.2333e-35
3.09012e-37
-0.00102631
-0.000105711
-0.000201639
0.00107772
-6.46136e-43
3.84248e-42
2.14801e-08
-8.63278e-15
-4.11758e-37
3.20123e-38
-1.27331e-40
1.5638e-40
5.7674e-29
5.98074e-29
-3.59775e-34
2.16697e-35
7.31156e-17
1.91875e-16
5.27485e-16
-8.90298e-14
0.000234479
0.000580685
-0.00012243
5.54118e-32
1.05487e-29
-1.62151e-10
3.68387e-41
1.19731e-16
-2.2804e-14
1.28473e-16
-3.34777e-09
-9.04941e-05
4.3833e-29
-2.86376e-16
-4.20505e-39
-1.93887e-35
7.62448e-40
-3.65481e-41
0.000719629
-5.70178e-06
7.87066e-43
-7.56644e-43
-9.83552e-15
3.33215e-14
1.58895e-08
2.19303e-25
-1.51975e-30
1.54729e-19
-2.86081e-18
-1.49994e-29
1.65659e-30
-5.29574e-44
8.06049e-44
1.40794e-20
2.45418e-42
-2.10929e-16
4.89077e-18
-2.79366e-15
-2.63682e-28
1.53297e-30
1.31447e-28
2.71945e-27
2.71513e-16
1.5076e-16
-0.000556229
-5.88689e-33
8.37686e-34
1.63223e-30
0.000874418
0.000500609
-1.19735e-19
-2.15059e-17
1.81294e-25
1.42401e-44
-7.5047e-11
3.49959e-11
3.72736e-46
1.02725e-27
2.19435e-28
-1.46605e-20
-2.53652e-23
-1.42501e-31
2.94892e-28
-1.87509e-27
-0.00102794
0.000826303
2.49802e-30
2.14755e-30
-6.74111e-23
2.53637e-24
1.79579e-08
-9.92047e-10
-8.66205e-14
1.21066e-14
0
9.1573e-31
2.93687e-34
3.74516e-29
2.89805e-17
-3.07889e-07
3.38496e-12
3.28552e-30
1.43754e-43
6.27687e-44
7.65179e-24
2.08147e-11
7.75147e-12
1.49468e-20
-2.46427e-22
0.000823486
0.000254233
-1.15083e-16
-1.85084e-25
9.65995e-17
-6.42077e-12
-3.89205e-32
7.44883e-33
1.86734e-21
6.07594e-24
-8.00273e-05
-1.35398e-14
2.23387e-15
1.00994e-45
7.79439e-26
7.07503e-19
1.64382e-18
-4.16257e-44
1.23932e-42
-4.36877e-37
2.55248e-38
-1.00045e-10
4.41414e-28
7.0002e-31
3.13604e-22
-3.38695e-38
0.000936156
4.23673e-39
-1.76099e-40
-4.7831e-17
9.19119e-44
3.69186e-41
-1.30388e-43
-2.33552e-31
6.94375e-31
-2.25958e-35
1.90327e-36
4.6629e-48
-2.28482e-47
-3.74517e-29
1.37535e-31
7.39994e-33
1.88768e-47
1.3631e-36
3.32977e-42
2.4842e-31
8.24447e-32
3.30287e-44
2.43582e-25
1.52337e-15
7.90516e-43
-3.28081e-44
1.92301e-31
2.80518e-30
1.16257e-08
-2.36744e-37
1.22956e-20
-2.23783e-18
-1.24615e-15
2.81357e-17
-5.16147e-05
-2.65425e-16
3.55728e-17
1.68992e-45
-0.000122214
-1.53844e-34
1.13593e-35
6.69918e-46
2.44849e-32
1.69857e-32
2.03439e-32
-1.74315e-31
4.88802e-32
4.86957e-10
-3.07765e-16
-5.88901e-08
5.37217e-08
-1.34964e-36
-5.30609e-17
1.34709e-20
-1.23632e-42
1.57298e-40
-2.8451e-17
1.83287e-19
-1.48884e-19
2.45145e-17
-1.53272e-30
8.8745e-33
-5.86747e-34
-4.53443e-46
2.1975e-45
4.56926e-46
-2.35962e-46
4.63067e-36
5.59937e-24
5.08542e-46
-5.92644e-46
0.00101304
-0.000317724
-0.000695315
2.42432e-25
-8.15004e-33
-9.43067e-18
0.000431743
1.39656e-28
-4.97982e-11
-3.51803e-38
9.57803e-40
3.20069e-33
-1.4335e-31
5.68709e-34
1.31023e-20
5.98441e-06
-5.40198e-08
5.90731e-33
-3.1571e-33
3.19741e-34
2.22799e-16
-2.57161e-17
4.71742e-30
3.86957e-30
1.78774e-40
-1.73816e-41
3.07517e-09
-1.20408e-19
1.25144e-21
2.1794e-43
1.31718e-43
-2.92237e-46
-1.36386e-39
1.09959e-25
6.60211e-34
8.43787e-33
9.57717e-34
-8.54214e-20
7.59596e-47
0.000545348
0.000467691
-3.42631e-37
5.68848e-38
3.30916e-44
-1.06211e-46
2.04366e-31
3.48576e-32
-3.053e-39
1.28888e-05
3.01094e-06
1.59714e-07
-3.16018e-47
4.25518e-47
2.81316e-11
-2.44329e-17
4.19389e-17
3.53515e-46
-8.81828e-09
-6.0005e-10
-2.46313e-22
3.81142e-25
1.3286e-12
2.23261e-12
-4.99631e-17
-1.04854e-25
2.30094e-47
2.46232e-22
-0.00104067
0.000269458
0.000771207
3.24289e-34
4.79994e-50
3.65063e-39
7.68127e-48
-1.7156e-43
7.99432e-47
1.67415e-47
4.27008e-32
-1.15011e-22
6.13136e-46
-2.288e-47
2.41962e-17
-4.21721e-23
1.69765e-23
2.51774e-23
1.97291e-11
-0.000771927
0.000911975
-1.0556e-33
2.96281e-34
4.11048e-21
1.4848e-34
-1.23508e-17
-4.98336e-36
9.82638e-37
-8.99524e-52
6.7858e-51
6.40005e-23
0.000217179
-0.000999999
0.000782819
1.78669e-26
-0.00112807
0.00102236
-7.31401e-26
0.000142487
-0.00119334
4.42051e-49
0.00104271
-0.00113318
8.93423e-49
-7.87852e-46
-6.97625e-46
-4.45461e-17
7.97038e-18
4.4785e-37
-1.80934e-23
5.31257e-22
-1.38985e-39
1.98346e-41
-7.853e-35
7.87313e-35
-6.65521e-18
9.58484e-20
-1.82369e-41
7.66887e-43
-2.39644e-47
2.78726e-47
-7.01263e-43
-0.00029376
0.000874445
1.07154e-46
-2.16795e-49
7.15062e-10
8.31061e-33
-8.14119e-37
7.3099e-35
-3.38302e-41
-2.38494e-20
2.2078e-49
2.22549e-32
6.61623e-08
-4.39972e-10
5.59951e-24
-1.63244e-28
-6.71466e-10
-9.79409e-17
0.00110732
-0.00118564
6.27682e-45
9.60942e-44
-4.55282e-45
5.9005e-34
-1.77346e-42
0.000812602
2.42727e-24
2.95482e-34
3.59785e-35
2.4015e-36
5.0243e-50
-3.18393e-35
3.97143e-36
1.29819e-17
1.20002e-34
-3.31369e-10
-1.55705e-16
1.44019e-10
1.31942e-46
4.24798e-35
2.06668e-35
2.82001e-14
-4.83477e-39
9.24847e-40
-0.00107891
0.000956485
4.44465e-10
-2.91822e-16
4.1771e-39
-0.000173696
2.69823e-49
2.30485e-47
-6.87658e-50
1.885e-36
0.000884897
-8.18919e-07
1.25907e-25
-1.57106e-34
0.000518843
4.27328e-23
-6.85723e-23
5.76414e-36
8.37884e-36
-1.55428e-22
5.50358e-22
-7.4697e-51
5.66107e-49
-8.61117e-20
2.34167e-22
1.01577e-40
3.05469e-21
-9.08659e-20
2.52803e-34
1.82293e-34
3.56855e-28
-3.08783e-39
1.15914e-41
-1.2702e-22
-3.37581e-49
2.47448e-49
3.1877e-26
4.23544e-37
1.05997e-50
-9.10492e-50
1.24263e-50
2.65181e-24
-1.72154e-47
3.39438e-46
5.66852e-16
-3.4644e-16
-1.50085e-37
1.6946e-36
-7.10672e-43
1.05551e-44
-2.74569e-37
3.07809e-38
-1.74509e-44
2.35314e-08
-7.5187e-51
4.2085e-53
-1.15495e-17
-1.9193e-23
0.00151746
-0.00176033
-5.8625e-13
2.3963e-22
-2.78563e-25
4.64287e-45
-1.92543e-46
-3.49789e-41
8.35312e-43
0.00184923
1.737e-35
2.68658e-36
3.06129e-48
1.43569e-38
-2.78055e-49
1.80593e-50
4.62687e-37
6.78385e-23
3.4696e-49
-1.23688e-50
-3.88487e-22
1.56246e-22
5.49671e-12
1.5147e-49
2.20485e-49
-6.74232e-51
2.19874e-36
-2.75492e-37
8.00375e-37
-1.0976e-22
1.91388e-24
1.17069e-07
-4.41822e-08
9.05076e-53
2.81942e-47
1.3194e-52
0.0010832
-4.04887e-05
3.8905e-35
2.12817e-34
6.92946e-50
-1.30308e-52
-8.3766e-26
-1.02675e-42
1.22182e-25
4.83843e-26
-1.92299e-18
1.82982e-37
-7.09755e-33
-2.92589e-35
1.0696e-33
-2.37205e-37
2.40218e-38
-4.48743e-05
6.37779e-17
9.40477e-31
2.49895e-13
-2.77493e-05
-3.0153e-48
-0.00097727
0.000855056
6.15524e-38
4.64152e-51
-2.56767e-05
4.57279e-53
-9.45771e-52
-2.37091e-40
5.77406e-41
2.62253e-53
5.61771e-14
3.61327e-52
3.15406e-51
-1.03151e-38
4.73703e-39
1.46559e-16
-8.04164e-19
1.16015e-05
-6.69545e-08
-3.75581e-46
-3.06747e-55
2.40134e-36
1.62745e-40
5.02079e-37
2.55406e-34
-1.91816e-34
-1.06318e-50
1.08415e-50
1.05085e-36
-3.57786e-46
6.44405e-45
-1.59209e-26
7.09665e-26
-7.501e-05
9.80755e-39
-6.8912e-26
3.01106e-29
-1.76194e-44
2.67905e-46
8.12232e-42
-9.38666e-42
3.68454e-42
-1.20388e-22
1.21872e-25
-1.97649e-46
5.09146e-48
3.31915e-48
-5.04085e-48
-5.65549e-05
4.2094e-35
1.00956e-17
-5.84641e-18
-6.18992e-29
1.24455e-50
-3.51582e-53
-2.65549e-27
-4.62368e-46
4.62038e-39
1.71653e-07
-1.82576e-08
-5.03223e-07
4.09177e-51
-2.6997e-39
1.45413e-40
-0.000107234
0.000974842
-0.000867608
1.68005e-22
-1.21351e-23
1.84191e-28
9.68292e-17
3.06144e-48
-5.16446e-52
9.58864e-41
8.87502e-53
-1.05158e-42
2.46096e-44
3.35601e-39
1.38025e-38
1.32194e-52
1.46775e-55
3.94002e-11
-6.50705e-56
6.55882e-55
2.95084e-39
2.50595e-39
1.59658e-51
5.13703e-54
5.49783e-12
-9.62463e-16
-1.62997e-10
2.88903e-10
1.48812e-22
-1.04015e-09
1.97592e-25
-1.23659e-28
5.01318e-53
1.39399e-41
6.62356e-56
-3.41021e-26
2.22593e-27
-7.17644e-51
5.44844e-51
9.93418e-39
5.6234e-39
-2.40255e-44
3.46647e-40
1.3936e-39
2.98242e-54
-3.73005e-53
5.13015e-37
4.55507e-29
-6.53324e-55
1.20769e-52
0.000305199
0.000569245
4.36946e-19
-2.35994e-18
-1.24134e-40
5.74148e-40
-2.50589e-20
-1.37111e-20
-9.8286e-26
6.9675e-29
3.53882e-53
-6.25716e-56
-9.60712e-47
-8.2469e-42
1.31112e-42
-5.10361e-48
7.66567e-50
-3.16753e-30
8.4516e-16
-6.25535e-16
-1.29982e-40
1.0946e-40
7.46357e-09
-1.0933e-49
-3.51671e-51
-2.07849e-05
3.22593e-56
-1.26034e-58
5.231e-52
-9.04702e-54
9.16538e-53
-1.44204e-52
0
4.30886e-53
3.92114e-55
1.49289e-39
6.91371e-39
-3.91398e-41
4.52648e-41
-4.68286e-46
6.61313e-48
1.47424e-52
-5.11814e-54
2.00568e-43
0.00100929
-0.000226474
-0.000964261
0.000790565
2.96095e-41
-3.36745e-18
1.05807e-56
4.09088e-20
-2.17723e-41
1.09443e-42
1.49449e-41
5.55765e-10
3.80036e-40
8.87341e-41
1.029e-55
2.73095e-56
4.27704e-58
6.92179e-30
-1.23573e-47
-2.602e-27
2.58018e-30
6.4307e-41
1.32106e-58
7.19708e-42
-4.09844e-51
3.98167e-51
-1.70189e-14
3.31848e-33
-1.30614e-33
0.000635232
0.000374061
-6.37137e-43
1.31772e-43
-7.57606e-31
-6.57804e-53
3.62588e-54
8.88667e-54
-3.19824e-56
3.04586e-33
2.77809e-29
-2.77809e-29
-1.43625e-55
-3.89793e-55
2.79431e-42
-2.55885e-44
1.07181e-45
1.88131e-41
-5.12229e-44
-7.18679e-54
1.99261e-54
-1.05158e-40
0.000413288
4.61122e-17
3.60162e-16
-2.66561e-17
6.33848e-56
3.07327e-57
4.00358e-43
5.14435e-54
-1.39181e-56
-0.00126835
0.000736319
0.000199836
2.46418e-41
1.04345e-22
9.73791e-55
-6.21747e-29
1.71568e-32
-5.6713e-34
1.56217e-43
8.17639e-15
0.000788301
-5.79956e-46
-1.53696e-39
3.27108e-39
1.10409e-53
-6.23627e-21
1.10023e-55
6.39212e-55
-1.10651e-49
2.0077e-51
2.73546e-18
-2.63978e-18
-3.75174e-53
2.07394e-53
-8.49852e-54
5.9709e-59
2.25312e-45
2.89916e-47
-4.79385e-48
-1.91302e-30
7.29684e-31
-9.77369e-44
2.4965e-45
1.21084e-10
-3.44531e-18
-2.74592e-51
-1.0441e-54
1.59871e-57
1.45514e-43
5.36178e-44
3.92067e-55
4.7312e-59
5.35133e-41
-8.83635e-45
1.07325e-43
-0.000109205
2.97814e-33
2.73563e-16
-3.09732e-51
1.10731e-53
-1.25508e-47
1.78539e-49
2.83766e-18
-3.48977e-30
1.73014e-33
-2.41797e-54
1.53466e-54
-2.37842e-34
1.4943e-46
-2.25733e-44
6.32846e-44
1.2775e-58
1.39937e-56
-1.72612e-59
1.00341e-28
-1.43258e-31
-1.06579e-59
1.08282e-58
-2.13572e-44
2.6088e-44
-2.50557e-49
0.00100427
-0.00104476
-4.22092e-56
-2.23326e-61
-1.17444e-44
4.30717e-45
-8.92047e-06
1.10608e-07
-5.24529e-38
-1.33779e-39
2.7499e-38
1.40354e-43
2.23292e-43
3.65622e-17
-3.30591e-17
9.16888e-60
1.02974e-56
-1.27625e-58
1.60864e-60
-2.44069e-45
1.40793e-45
1.38303e-59
-1.00799e-59
0.00104472
-0.00106999
-0.00100427
0.000959396
-6.04005e-46
1.71703e-47
-2.45788e-57
-5.77053e-55
3.22509e-60
-7.58242e-31
1.24578e-34
5.26822e-46
-9.46795e-46
2.6686e-47
8.14764e-44
2.15064e-43
-0.000410336
0.00106579
-8.63593e-54
1.38625e-55
-3.8069e-18
1.94074e-19
2.89525e-18
2.75753e-44
1.39571e-43
-3.40235e-57
5.78331e-62
7.48224e-58
-1.16401e-56
-2.47733e-55
-3.27429e-35
2.58004e-56
-4.63948e-56
-4.2186e-23
4.77625e-35
-1.16249e-48
-3.48847e-40
6.21956e-42
3.62337e-46
-2.78119e-51
4.2648e-53
-8.41776e-59
2.93952e-42
-1.07881e-58
1.58055e-56
3.41749e-34
2.69049e-29
-1.85385e-29
-4.57417e-09
2.8966e-59
1.42592e-59
1.95892e-46
-3.53171e-09
1.32927e-17
4.7875e-62
4.72081e-56
-1.59426e-57
-1.21632e-54
5.95773e-55
7.3832e-47
6.68826e-46
-4.2429e-53
-8.22148e-36
6.77103e-20
-6.75497e-20
6.21732e-34
-1.10122e-36
8.66983e-48
1.2265e-62
7.45766e-36
-7.43484e-43
3.70442e-43
-1.69953e-47
1.57653e-48
3.39128e-09
-7.429e-11
-2.53367e-49
2.50912e-51
2.32145e-48
-0.000959396
0.000902841
-5.43578e-07
5.41533e-07
4.46872e-10
3.58254e-61
-2.0102e-18
2.25807e-57
-2.28214e-59
2.54517e-60
-7.74038e-58
1.1763e-48
3.74509e-44
3.2778e-35
1.60083e-57
-4.164e-60
0.000365801
0.0004225
6.4846e-61
1.70068e-64
1.2542e-61
1.32719e-10
-7.27937e-18
-2.46815e-52
1.39219e-06
-0.000372974
9.34045e-05
-2.38014e-34
6.00797e-37
1.16832e-61
5.14056e-17
-4.29781e-17
1.72109e-50
-1.08612e-49
-3.34399e-45
9.31169e-46
2.75875e-46
-6.09505e-39
6.02595e-60
-2.49946e-58
-8.30313e-65
-0.000911074
0.0006846
-0.00081783
2.24884e-58
2.45792e-59
7.78725e-46
-8.46874e-57
3.73964e-58
1.00176e-45
7.93604e-64
5.12738e-64
-1.0425e-48
3.96426e-48
1.69349e-32
-4.49269e-35
-1.11385e-48
1.20594e-50
-1.29311e-59
-1.18916e-61
-2.54283e-55
6.98901e-57
5.98341e-19
4.77907e-17
-1.64612e-48
3.26096e-48
-3.82595e-61
-0.000120509
0.000882057
-0.000902841
-7.45737e-64
1.5904e-63
0.00106635
-0.000923859
-5.00554e-57
-1.68948e-48
1.92614e-48
-6.08039e-44
2.67114e-44
3.65191e-61
-5.83862e-55
2.01018e-57
-9.17732e-60
3.55227e-48
-2.60521e-49
4.18223e-60
1.22692e-63
-1.17037e-48
7.1973e-49
-4.2701e-53
3.65768e-55
0.000518159
-0.000625393
2.30224e-17
9.00779e-64
-4.47172e-63
-4.92448e-49
9.31967e-50
2.7428e-54
-5.9149e-55
-3.27784e-35
3.37325e-39
4.45322e-59
3.22829e-09
0.00104152
-1.37791e-63
1.03522e-62
-1.42477e-52
3.41749e-34
1.04204e-42
3.18944e-11
-4.33848e-60
2.25222e-63
-2.60968e-56
-7.19429e-50
2.06796e-50
0.000935046
-1.07795e-58
-3.99854e-40
1.21233e-46
-1.13242e-16
4.93553e-16
-2.25695e-31
-2.47808e-52
1.6272e-54
-1.80885e-61
5.2274e-42
-2.05944e-42
1.57346e-66
-6.70792e-63
4.079e-64
2.96672e-66
2.02982e-48
4.08814e-49
7.22505e-64
1.00317e-50
1.75197e-54
1.53415e-61
-2.75064e-60
-7.9715e-63
3.95545e-62
1.19135e-36
-5.00431e-41
4.47387e-40
-2.91831e-58
8.66415e-59
-1.04508e-50
3.03255e-52
5.21492e-64
7.94803e-67
1.27281e-50
0.000911975
-1.70702e-64
8.83859e-51
9.63757e-64
3.60105e-51
1.14137e-59
-3.64027e-61
0.000772851
3.62592e-25
-3.62561e-25
0.000891205
-0.000255973
0.00223505
-0.00116871
3.13252e-65
5.5046e-60
-1.12688e-59
1.05582e-51
0.000573481
-3.06826e-56
-1.93417e-44
1.9348e-44
1.20687e-52
4.6403e-48
1.64467e-49
1.01264e-52
5.34242e-51
1.8749e-42
-3.92042e-61
9.44753e-63
-6.75492e-20
-6.10054e-39
2.55602e-41
-6.02274e-47
1.97089e-47
3.53541e-17
-3.73684e-17
-5.07377e-57
8.0095e-59
3.61065e-61
-2.83047e-63
5.76045e-49
2.15161e-48
-3.5145e-43
9.1199e-18
-1.5506e-16
3.65176e-61
-9.10571e-64
1.37797e-67
-7.86903e-67
2.56057e-35
-2.42708e-39
3.78846e-62
-4.08812e-16
3.28117e-16
-5.69649e-62
1.94838e-66
-1.03109e-62
1.03356e-60
-7.5352e-61
-2.54242e-68
-2.32936e-60
2.30508e-65
-4.7656e-64
1.00273e-53
3.8456e-63
0.00124577
-0.000727611
-5.52438e-64
-1.00182e-46
-1.16211e-67
7.0996e-68
5.22546e-67
1.42122e-62
-5.9107e-64
-1.3848e-52
1.50374e-54
-3.65805e-63
-2.61906e-56
1.7746e-58
0.000321912
-8.05858e-58
2.68658e-59
8.68643e-64
-2.03839e-63
-1.2403e-17
5.84022e-65
-6.6638e-50
1.34885e-51
-5.88464e-68
1.00711e-67
0.000206485
5.06253e-10
-2.90881e-60
2.4886e-42
-6.64475e-44
-0.00123431
-1.14007e-47
1.15432e-47
1.09044e-66
9.9601e-68
-1.98889e-62
2.18008e-19
-1.28946e-20
2.5346e-70
2.05483e-63
-5.79407e-65
4.43496e-66
6.78259e-57
-1.81517e-65
1.56209e-66
1.49122e-69
1.02867e-42
1.91526e-50
9.13627e-64
3.68921e-66
-1.29911e-61
1.74485e-51
-6.37405e-67
1.06007e-65
4.00097e-40
5.76448e-29
-4.05039e-29
2.33839e-43
-1.08974e-58
3.23678e-61
-3.62739e-09
-0.000218498
3.91889e-51
-5.46999e-68
2.24838e-69
3.50123e-67
1.63816e-69
3.94403e-67
0.00111181
1.17536e-67
-3.07431e-56
2.05404e-58
6.53307e-71
-1.65714e-54
9.40571e-50
9.85001e-68
-2.6546e-67
-9.33944e-68
4.6701e-67
1.26045e-16
-2.02544e-16
-5.6535e-07
4.99812e-41
-8.32194e-46
0.000404374
-0.00102977
2.05967e-70
6.03849e-44
-2.86543e-63
3.50223e-65
-3.39698e-61
1.38061e-62
-1.79844e-65
3.99382e-69
5.80671e-65
-1.3766e-67
8.65288e-64
7.77104e-69
-4.19031e-65
2.97656e-68
-0.000902841
-1.1379e-62
8.51489e-71
0.000999785
-0.000595411
-3.71506e-66
3.73762e-50
3.74066e-67
-1.82297e-54
3.39795e-51
-6.77742e-49
1.15063e-51
-2.10605e-53
5.78623e-51
-5.86155e-65
6.91841e-65
1.49519e-39
-3.18912e-43
-0.000484419
-0.000830846
0.000574874
-6.43388e-53
6.52673e-51
-2.17086e-59
6.29705e-55
0.00116871
-0.000846795
5.80933e-69
-2.34624e-60
2.84355e-62
-0.000772851
0.000652342
-1.14259e-52
3.44169e-51
2.66356e-67
-5.85933e-69
-1.22118e-52
1.74741e-51
-3.81607e-25
1.90759e-07
-1.91416e-07
-3.01222e-10
-6.96186e-53
5.16593e-52
-5.99216e-59
0.000138252
-0.0010342
1.64622e-71
9.09554e-71
3.86647e-72
-1.94293e-53
4.79276e-53
3.14787e-64
-1.38345e-65
-3.51622e-43
4.39827e-46
-1.23326e-66
1.0112e-68
-5.05686e-71
4.06442e-71
-2.29211e-64
-7.33029e-72
2.84837e-72
-1.39439e-63
-6.39588e-72
4.92603e-19
-6.65818e-18
-2.3196e-17
-4.22755e-68
3.13566e-69
4.95768e-52
-1.1717e-54
8.66162e-72
-3.5146e-71
-0.000146246
1.37983e-67
5.8959e-69
8.23432e-34
-8.23432e-34
-1.40621e-66
-5.00675e-49
-8.97699e-10
0.000272173
-1.27784e-54
3.56335e-55
-1.7403e-55
-8.23594e-43
-1.25108e-48
-1.01982e-69
-2.91909e-60
2.0493e-62
1.65102e-71
-1.77795e-50
5.86579e-69
-1.26369e-71
-2.57036e-65
-4.05027e-29
-4.64513e-67
1.77894e-65
-3.08203e-51
7.41869e-50
2.74764e-50
2.0449e-70
-5.68279e-74
3.25482e-18
-8.77141e-18
2.64629e-73
-2.59934e-72
2.17884e-72
8.83781e-73
4.52392e-71
2.1485e-72
7.16516e-53
8.58265e-52
9.46112e-67
-3.07425e-68
3.92885e-67
-9.30327e-69
-2.8002e-52
2.0905e-51
-9.7234e-68
7.44068e-68
-1.25518e-65
8.19598e-17
1.49496e-73
1.3698e-42
-1.72864e-43
1.15343e-62
-1.51993e-65
-6.0559e-57
7.18613e-58
1.18785e-74
3.41542e-67
-1.5302e-68
4.0313e-71
-1.1988e-50
2.9574e-50
-8.81618e-68
5.44773e-71
-7.04008e-63
1.22695e-73
1.43938e-72
2.5669e-71
-3.2359e-17
7.77207e-72
-1.3179e-61
1.04378e-63
-2.1856e-69
4.10999e-75
0.000425657
-0.000910076
1.70462e-65
0.000827914
-0.000402257
-1.73743e-65
-9.75425e-53
-1.30054e-69
2.98896e-72
3.12524e-72
-9.39707e-74
1.02253e-64
-1.47455e-66
0.000846795
-0.000574621
-1.74974e-69
4.01658e-74
1.26547e-71
5.67646e-72
0.000232503
1.96067e-43
-3.70557e-48
2.74356e-10
7.08218e-10
-5.7219e-71
3.96655e-72
5.86555e-45
-3.26207e-49
-0.000336595
4.33913e-43
-8.23432e-34
9.38654e-43
-1.34243e-50
8.06771e-52
-1.56193e-66
-1.35958e-75
-8.31534e-46
7.31215e-49
-1.16313e-70
6.28825e-74
9.66824e-70
-3.07584e-71
2.55869e-75
-4.31082e-71
5.75981e-71
-5.78508e-51
-2.62606e-22
2.62488e-22
-6.02802e-59
5.40188e-61
-9.82266e-73
1.53515e-74
-1.8014e-25
1.80119e-25
4.22277e-70
-1.43049e-71
-0.000755423
0.000418827
-2.01262e-72
3.0507e-73
-0.000652342
0.000506097
8.30316e-75
1.8011e-75
-2.02709e-72
-1.4632e-65
6.67312e-68
-1.81758e-68
2.6399e-73
-1.38739e-77
-2.10515e-72
3.9381e-77
4.25002e-29
-4.24962e-29
-4.93604e-52
3.9265e-53
8.79677e-75
2.30901e-20
-3.64498e-74
-2.21756e-73
-2.3085e-64
2.77746e-66
1.57852e-72
-3.70256e-74
8.19748e-75
0.000872453
-0.000449953
1.49195e-07
1.06263e-68
-1.23392e-70
-9.19631e-71
4.55466e-71
-4.82664e-74
3.01777e-75
4.78195e-75
-1.89813e-75
2.04547e-77
0.000574621
-0.000342118
-1.46861e-73
1.46923e-73
7.33105e-73
-2.21987e-74
4.30089e-77
-9.15931e-74
-6.58517e-75
3.17034e-74
-1.94535e-53
2.11246e-54
-5.0146e-49
3.24295e-51
-0.000180549
-3.26748e-76
2.27317e-75
2.04423e-76
-1.90955e-25
-1.58283e-75
1.67827e-80
-1.49252e-75
2.27414e-80
-9.42588e-44
1.53275e-42