/*--------------------------------*- C++ -*----------------------------------*\
  =========                 |
  \\      /  F ield         | OpenFOAM: The Open Source CFD Toolbox
   \\    /   O peration     | Website:  https://openfoam.org
    \\  /    A nd           | Version:  8
     \\/     M anipulation  |
\*---------------------------------------------------------------------------*/
FoamFile
{
    version     2.0;
    format      ascii;
    class       volScalarField;
    location    "0.15";
    object      epsilon;
}
// * * * * * * * * * * * * * * * * * * * * * * * * * * * * * * * * * * * * * //

dimensions      [0 2 -3 0 0 0 0];

internalField   nonuniform List<scalar> 
1924
(
0.146665
0.150757
0.151608
0.156303
0.148769
0.153266
0.157029
0.155666
0.157575
0.154141
0.158006
0.159054
0.0832109
0.159725
0.157773
0.157306
0.0910244
0.160545
0.138312
0.160893
0.062912
0.1552
0.144917
0.161348
0.154954
0.155067
0.155414
0.157761
0.127551
0.156859
0.135926
0.154971
0.102111
0.10699
0.158353
0.152121
0.155345
0.136563
0.15259
0.121544
0.155327
0.0698192
0.155089
0.136728
0.154675
0.0935262
0.13579
0.160979
0.0531883
0.0562881
0.144465
0.072491
0.155241
0.14219
0.0716274
0.159156
0.132001
0.158964
0.156236
0.154987
0.143184
0.157255
0.138134
0.151786
0.13987
0.161701
0.155915
0.154148
0.0999527
0.141165
0.0827091
0.156715
0.150451
0.15811
0.158075
0.0970759
0.162193
0.15971
0.161231
0.143393
0.164354
0.155405
0.152603
0.0644086
0.133329
0.154805
0.159349
0.158244
0.0535953
0.0752749
0.156138
0.155145
0.0793626
0.087433
0.0723671
0.131583
0.162264
0.163714
0.155159
0.0922009
0.134668
0.0674362
0.155452
0.15517
0.0937
0.163013
0.112986
0.104457
0.154687
0.0837192
0.162506
0.102153
0.151125
0.15666
0.161712
0.0627379
0.140795
0.156861
0.154042
0.162422
0.127015
0.174926
0.0612966
0.0668813
0.156048
0.116096
0.10148
0.160211
0.0920193
0.284376
0.162805
0.120095
0.579449
0.156628
0.0741496
0.0998987
0.131554
0.109229
0.161197
0.154303
0.160943
0.156582
1.08642
0.89014
0.141108
0.133511
0.112822
0.0906966
0.15451
0.153757
0.142886
0.357651
0.100457
0.125263
0.146006
0.124892
0.171065
0.137601
0.162632
1.14017
0.157787
0.0879698
0.13206
0.186779
0.138339
0.107832
0.130797
0.218217
0.162704
0.0975237
0.111256
0.14796
0.163627
0.155022
0.16095
0.136588
0.156831
0.323794
0.153567
0.138151
0.150929
0.156886
0.160492
0.138458
0.0511187
0.144743
0.110063
0.154694
0.163222
0.159093
0.123801
0.151464
0.162756
0.143547
0.144018
0.38217
0.156345
0.142284
0.144779
0.14569
0.381778
0.153455
0.115046
0.153799
0.133583
0.153378
0.1489
0.101824
0.0868076
0.526745
0.199997
0.105821
0.160378
0.149074
0.155744
0.16203
0.154282
0.130689
0.152238
0.160091
0.132989
0.152293
0.124426
0.159753
0.156177
0.156573
0.162087
0.165702
0.152439
0.149734
0.421859
0.155638
0.148883
0.382214
0.15677
0.694708
0.160644
0.155497
0.132609
0.408184
0.156428
0.154624
0.161251
0.115074
0.785203
0.0786437
0.157822
0.161247
0.16076
0.164988
0.146254
0.249536
0.154912
0.112389
0.163531
0.159308
0.154881
0.155821
0.139626
0.157122
0.143243
0.140815
0.154791
0.161718
0.154802
0.15542
0.0803027
0.162819
0.0787979
0.424659
0.152274
0.14748
0.0923365
0.156071
0.155374
0.164242
0.158936
0.156627
0.121114
0.151587
0.332196
0.618526
0.156015
0.156388
0.127986
0.159448
0.162337
0.285377
0.158404
0.155526
0.146488
0.150751
0.156661
0.159978
0.058501
0.142528
0.15879
0.110493
0.161286
0.15942
0.512354
0.129769
0.161425
0.154111
0.159538
0.155978
0.0892642
0.161951
0.155952
0.157647
0.0899413
0.153554
0.157132
0.154684
0.163894
0.0893089
0.14811
0.159018
0.151552
0.151039
0.152682
0.154097
0.137413
0.151805
0.155718
0.165426
0.155997
0.155952
0.160459
0.161718
0.15366
0.155454
0.154509
0.160222
0.157491
0.156384
0.15505
0.154317
0.157608
0.144862
0.16576
0.154238
0.154632
0.122987
0.158268
0.15638
0.529686
0.155649
0.153293
0.155733
0.154768
0.796341
0.427641
0.159985
0.0814442
0.165074
0.0501007
0.159054
0.155804
0.113503
0.156362
0.158709
0.160508
0.155169
0.154705
0.149573
0.154507
0.155053
0.157554
0.156424
0.16191
0.153704
0.155622
0.156378
0.154793
0.263861
0.15827
0.157821
0.154544
0.155658
0.155926
0.163975
0.156208
0.155278
0.154823
0.162366
0.155242
0.155185
0.15476
0.153809
0.495863
0.154247
0.156375
0.155206
0.157617
0.710622
0.154632
0.154456
0.162577
0.156453
0.141133
0.160196
0.131513
0.0849106
0.557975
0.154822
0.163337
0.155238
0.155606
0.154595
0.156052
0.154094
0.15922
0.155944
0.157643
0.153907
0.164596
0.158627
0.154826
0.161046
0.159063
0.15551
0.163739
0.0968971
0.154457
0.16035
0.164048
0.1416
0.154242
0.154606
0.154849
0.165064
0.154654
0.153824
0.157969
0.154603
0.16085
0.101774
0.157754
0.154391
0.155509
0.154504
0.156303
0.131896
0.155254
1.46283
0.156009
0.157656
0.156268
0.154885
0.157305
0.154114
0.156913
0.162297
0.154476
0.156299
0.162154
0.157625
0.153665
0.155721
0.165503
0.154209
0.100508
0.153628
0.140874
0.154895
0.154911
0.157319
0.158374
0.159729
0.154357
0.153874
0.146125
0.162615
0.155547
0.165327
0.140635
0.15873
0.155234
0.156095
0.155662
0.158205
0.154533
0.154913
0.154109
0.15431
0.154365
0.15589
0.154437
0.163692
0.0993965
0.154426
0.153737
0.160449
0.158883
0.163624
0.155414
0.154597
0.154346
0.152481
0.159329
0.157269
0.155707
0.154159
0.105781
0.153747
0.157853
0.154248
0.153897
0.160586
0.163045
0.164073
0.154607
0.157052
0.154626
0.154629
0.154082
0.156076
0.158513
0.155782
0.153493
0.157509
0.164672
0.161091
0.157216
0.156058
0.149099
0.151093
0.154215
0.157277
0.153414
0.158731
0.153777
0.154761
0.146826
0.15461
0.157964
0.155452
0.118696
0.154089
0.153896
0.154079
0.150979
0.161396
0.16231
0.154218
0.138008
0.149079
0.154873
0.162837
0.154204
0.154334
0.15609
0.153554
0.154129
0.15461
0.153524
0.149027
0.149322
0.136793
0.154032
0.153356
0.0985426
0.154344
0.15573
0.155101
0.164915
0.160666
0.141202
0.153796
0.162775
0.154268
0.154104
0.154372
0.153753
0.154378
0.154319
0.120763
0.159108
0.154251
0.153873
0.155206
0.158675
0.154376
0.140793
0.152208
0.158052
0.153067
0.163446
0.154633
0.153999
0.153429
0.335986
0.145277
0.150865
0.15958
0.154375
0.16467
0.154599
0.153263
0.109391
0.157682
0.156871
0.13981
0.153594
0.158199
0.155784
0.163721
0.155227
0.152807
0.153958
0.156701
0.154488
0.163881
0.153792
0.154839
0.156997
0.151341
0.126551
0.150528
0.160762
0.163747
0.159631
0.153825
0.157958
0.144084
0.153875
0.154966
0.15576
0.154232
0.155489
0.153997
0.165076
0.153198
0.15348
0.115694
0.153979
0.137986
0.154053
0.161235
0.154121
0.154146
0.153611
0.153896
0.153565
0.15686
0.153763
0.155776
0.154063
0.155531
0.153178
0.154151
0.148945
0.157005
0.154139
0.154164
0.153089
0.16316
0.153865
0.154031
0.154614
0.1529
0.148356
0.16193
0.154167
0.13584
0.153756
0.155238
0.153249
0.153511
0.153605
0.162877
0.109058
0.163466
0.15658
0.162194
0.158311
0.155712
0.150371
0.154057
0.158282
0.157873
0.154536
0.154338
0.153709
0.157524
0.154157
0.143675
0.159306
0.153455
0.155952
0.15667
0.160319
0.153779
0.153015
0.157001
0.153929
0.158824
0.15352
0.153574
0.16126
0.152962
0.153843
0.131628
0.142196
0.153855
0.153943
0.153756
0.159729
0.153296
0.153092
0.151667
0.153949
0.145846
0.153668
0.15551
0.153966
0.152915
0.156694
0.11585
0.154991
0.154781
0.162819
0.153702
0.155471
0.244602
0.555658
0.118189
0.153879
0.160262
0.153971
0.153686
0.149878
0.153505
0.154319
0.153634
0.154148
0.153897
0.154502
0.152852
0.145829
0.153978
0.161269
0.221973
0.159615
0.35552
0.153321
0.1537
0.153148
0.16041
0.153521
0.153419
0.158311
0.139072
0.148203
0.156668
0.118332
0.128118
0.142965
0.154595
0.124259
0.153978
0.155321
0.159031
0.153466
0.153532
0.153568
0.153324
0.152792
0.153652
0.154994
0.153635
0.150851
0.153779
0.14189
0.158047
0.153184
0.153541
0.153127
0.153756
0.152735
0.160285
0.157406
0.10783
0.160674
0.127408
0.155637
0.153699
0.156835
0.153263
0.153434
0.152591
0.157181
0.153786
0.153303
0.158933
0.158401
0.130146
0.153709
0.152682
0.113258
0.154928
0.15345
0.117249
0.15851
0.156011
0.134514
0.154798
0.153801
0.153198
0.134285
0.158727
0.153046
0.251385
0.152749
0.153222
0.154299
0.150048
0.153406
0.1542
0.152475
0.15662
0.156116
0.151287
0.153957
0.158679
0.153188
0.154098
0.153807
0.153219
0.155165
0.155764
0.152791
0.153456
0.15326
0.153436
0.159023
0.154146
0.156448
0.530401
0.160599
0.258151
0.153507
0.153363
0.061352
0.152192
0.153519
0.153156
0.154445
0.152293
0.157767
0.153806
0.152349
0.157959
0.154979
0.153597
0.152149
0.15281
0.141329
0.146268
0.15407
0.155864
0.153605
0.115294
0.15233
0.153627
0.145146
0.153328
0.152663
0.15312
0.155982
0.152363
0.152059
0.156871
0.152807
0.110742
0.15534
0.152517
0.188818
0.153555
0.115979
0.152409
0.1543
0.117842
0.153257
0.153199
0.153636
0.161005
0.1538
0.153942
0.152781
0.151551
0.306273
0.155191
0.15696
0.157252
0.157448
0.154608
0.152042
0.155265
0.152824
0.122322
0.152436
0.116458
0.153265
0.153103
0.156238
0.149486
0.153338
0.155956
0.153323
0.109284
0.157212
0.911755
0.126933
0.153647
0.15079
0.153236
0.15244
0.151522
0.131883
0.155099
0.152733
0.148411
0.154088
0.152844
0.151419
0.156255
0.157762
0.153376
0.152421
0.154453
0.153121
0.151005
0.153455
0.146949
0.154004
0.151081
0.153386
0.153648
0.14789
0.775
0.152883
0.134266
0.260584
0.153429
0.15238
0.153465
0.151959
0.154746
0.150955
0.153032
0.643173
0.151116
0.153866
0.594158
0.15185
0.471484
0.152293
0.154136
0.148057
0.145764
0.151119
0.159491
0.140363
0.153485
0.155384
0.152667
0.153159
0.144434
0.144943
0.151099
0.147488
0.153134
0.155153
0.107868
0.153124
0.153204
0.153747
0.114963
0.154597
0.153216
0.150816
0.151057
0.153032
0.153615
0.152318
0.133313
0.114746
0.149723
0.15498
0.153489
0.145569
0.150993
0.149753
0.144295
0.149628
0.1538
0.153844
0.152497
0.152946
0.149008
0.14967
0.153971
0.149761
0.152257
0.15482
0.161809
0.156415
0.137201
0.150908
0.150385
0.15427
0.153287
0.156098
0.152561
0.153297
0.153247
0.149748
0.152587
0.156022
0.154822
0.156261
0.341412
0.139547
0.140351
0.153321
0.149714
0.153472
0.159004
0.154383
0.128616
0.149598
0.150358
0.153694
0.114819
0.12588
0.149655
0.161837
0.152456
0.152237
0.150553
0.154692
0.158676
0.153571
0.1541
0.152933
0.139179
0.153047
0.153025
0.153327
0.149573
0.155452
0.151631
0.150808
0.164792
0.160321
0.15285
0.155235
0.153434
0.145157
0.153084
0.149406
0.145081
0.106209
0.151961
0.136332
0.154832
0.152497
0.138206
0.139603
0.154383
0.143879
0.149473
0.144976
0.153095
0.15332
0.257924
0.153616
0.144855
0.152143
0.230526
0.153159
0.144714
0.110592
0.149715
0.145185
0.131743
0.153135
0.154217
0.152977
0.144554
0.153506
0.240475
0.222457
0.1507
0.153166
0.154718
0.164751
0.153288
0.148626
0.140692
0.144381
0.145362
0.268779
0.152828
0.0930339
0.145168
0.152913
0.153424
0.152746
0.150019
0.153323
0.281621
0.368743
0.159641
0.151311
0.149355
0.155563
0.140609
0.152398
0.152933
0.148922
0.153719
0.155282
0.152076
0.123058
0.153164
0.140514
0.26808
0.128853
0.15324
0.153208
0.154438
0.1404
0.140771
0.152041
0.149218
0.134037
0.12511
0.140263
0.153339
0.378147
0.113603
0.144894
0.144203
0.45579
0.15059
0.140105
0.217718
0.186975
0.153135
0.13055
0.154291
0.153118
0.154693
0.155425
0.151175
0.153081
0.152349
0.153003
0.152966
0.354202
0.390672
0.149227
0.268063
0.139038
0.153009
0.119497
0.139935
0.155241
0.140784
0.140987
0.143419
0.158998
0.153141
0.153009
0.113171
0.159808
0.15306
0.152952
0.140761
0.1538
0.14111
0.15285
0.126459
0.255757
0.144036
0.15272
0.152295
0.349161
0.126167
0.152639
0.10467
0.198874
0.151838
0.129653
0.151934
0.12588
0.144105
0.152831
0.154423
0.15298
0.126792
0.152943
0.125587
0.150479
0.142247
0.117468
0.151747
0.125292
0.154659
0.148118
0.153422
0.123581
0.13637
0.151889
0.139753
0.152183
0.424188
0.438296
0.1528
0.149099
0.125002
0.150202
0.154293
0.149328
0.14031
0.0939715
0.374568
0.149529
0.143887
0.15282
0.154626
0.150553
0.150404
0.150604
0.127405
0.1527
0.114167
0.154817
0.151826
0.152799
0.124539
0.112748
0.153825
0.124731
0.152856
0.113965
0.565607
0.152857
0.11378
0.150654
0.113589
0.151651
0.225042
0.134092
0.13002
0.310248
0.152827
0.151742
0.113388
0.3298
0.134207
0.139568
0.141211
0.127416
0.113181
0.114492
0.154837
0.152188
0.125701
0.138433
0.127123
0.105835
0.150369
0.153463
0.151824
0.128156
0.142681
0.119163
0.151554
0.145339
0.254334
0.150599
0.34934
0.152529
0.151916
0.152652
0.148974
0.145836
0.11297
0.150506
0.132562
0.15256
0.138641
0.145335
0.150633
0.152703
0.124497
0.389401
0.15261
0.143752
0.12794
0.154352
0.145667
0.104692
0.150415
0.40393
0.115347
0.145261
0.163783
0.436719
0.125745
0.139398
0.150272
0.160914
0.126449
0.142072
0.152416
0.282175
0.141339
0.145623
0.14178
0.112753
0.152707
0.375893
0.141222
0.152259
0.114913
0.151447
0.15422
0.115228
0.152678
0.152686
0.146951
0.138017
0.146583
0.153765
0.537552
0.711255
0.148219
0.116369
0.12767
0.309322
0.152507
0.141687
0.332886
0.150314
0.124313
0.141247
0.154725
0.456202
0.517463
0.126568
0.145194
0.315579
0.34122
0.43228
0.123828
0.139607
0.115324
0.112051
0.150261
0.151879
0.151713
0.145602
0.150616
0.152271
0.501358
0.152546
0.317896
0.366424
0.153417
0.141177
0.126162
0.433265
0.15208
0.114673
0.148853
0.251791
0.124129
0.249142
0.151331
0.253517
0.139764
0.110244
0.246752
0.154249
0.303837
0.14166
0.143633
0.219295
0.244525
0.126675
0.242511
0.128393
0.274962
0.240818
0.112527
0.123205
0.115368
0.117977
0.495328
0.435898
0.239495
0.152494
0.136935
0.150203
0.152416
0.126495
0.139245
0.125385
0.151208
0.154968
0.152362
0.256775
0.125776
0.10158
0.145571
0.141761
0.152526
0.140321
0.132047
0.294456
0.121623
0.238564
0.154586
0.154017
0.152127
0.124168
0.141624
0.113526
0.126832
0.150084
0.522778
0.134372
0.145058
0.116611
0.231057
0.0998927
0.115477
0.125184
0.141079
0.151082
0.25889
0.152321
0.150155
0.258079
0.145528
0.154089
0.307476
0.115829
0.150549
0.150477
0.238053
0.114494
0.151965
0.148735
0.258018
0.152204
0.112332
0.114997
0.149959
0.371993
0.152277
0.0896404
0.151599
0.153616
0.151979
0.114289
0.128555
0.151726
0.113561
0.153259
0.109261
0.141573
0.511966
0.27135
0.240718
0.538064
0.143529
0.292202
0.15194
0.126957
0.111635
0.252921
0.28384
0.112684
0.150954
0.152068
0.15418
0.125381
0.138239
0.143777
0.257976
0.145471
0.110849
0.150809
0.151793
0.115523
0.151775
0.139111
0.121853
0.105829
0.237929
0.149832
0.151457
0.114744
0.150044
0.104877
0.291387
0.124951
0.213333
0.293789
0.145405
0.296436
0.149695
0.144756
0.298453
0.141509
0.242659
0.299758
0.150553
0.120462
0.256963
0.300433
0.300605
0.148619
0.154666
0.149501
0.140817
0.124064
0.151257
0.114132
0.151801
0.528277
0.509799
0.300293
0.143436
0.127062
0.14533
0.232941
0.151126
0.273583
0.245219
0.149875
0.145233
0.235882
0.249381
0.13185
0.0970885
0.299498
0.232069
0.141433
0.275915
0.106415
0.149758
0.145024
0.139876
0.148477
0.288185
0.283559
0.115543
0.141348
0.279693
0.150158
0.238036
0.148993
0.112167
0.469452
0.263118
0.319519
0.24416
0.13245
0.0978855
0.151431
0.141095
0.14125
0.153904
0.111126
0.143345
0.153386
0.149351
0.276678
0.153052
0.123489
0.138991
0.22234
0.150366
0.298234
0.152996
0.148096
0.353591
0.20679
0.144428
0.148143
0.144292
0.127322
0.324342
0.127283
0.41652
0.251516
0.222336
0.140646
0.150993
0.144228
0.143202
0.151548
0.127269
0.23139
0.13888
0.487199
0.403386
0.0870854
0.273334
0.127151
0.225001
0.147142
0.153362
0.123996
0.140263
0.127223
0.124501
0.0921557
0.152622
0.296505
0.267174
0.146821
0.332587
0.269339
0.150398
0.11545
0.115503
0.367977
0.142719
0.321187
0.24564
0.149655
0.153434
0.34114
0.229542
0.13875
0.333843
0.154064
0.126796
0.331181
0.141548
0.113818
0.138966
0.214557
0.123958
0.151998
0.229321
0.235336
0.14897
0.0882613
0.115549
0.149417
0.140016
0.149508
0.115209
0.115524
0.332714
0.143747
0.143467
0.138446
0.150172
0.140674
0.112974
0.249878
0.358718
0.124688
0.152276
0.124456
0.10715
0.13289
0.251822
0.317309
0.142485
0.123741
0.253498
0.148012
0.23837
0.294321
0.114137
0.133089
0.137242
0.123938
0.27856
0.298716
0.112037
0.23557
0.250209
0.255076
0.117366
0.115412
0.132518
0.141151
0.12389
0.1978
0.301975
0.139414
0.110091
0.138033
0.230248
0.33248
0.138284
0.146744
0.11554
0.140217
0.111855
0.12268
0.146085
0.255595
0.306044
0.123579
0.201104
0.111935
0.292364
0.112706
0.297883
0.247143
0.312981
0.13849
0.256439
0.136858
0.242015
0.122026
0.113114
0.286594
0.250914
0.115995
0.239679
0.240643
0.285307
0.122674
0.261913
0.121343
0.280143
0.0973704
0.134678
0.108546
0.308187
0.329151
0.229269
0.228112
0.248662
0.244894
0.303199
0.271138
0.114681
0.119741
0.130793
0.111778
0.30379
0.251215
0.224008
0.0966509
0.117294
0.111402
0.111597
0.112039
0.129475
0.110821
0.288313
0.236721
0.107629
0.331268
0.222486
0.277806
0.213225
0.0950754
0.102853
0.248116
0.134374
0.187585
0.176624
0.154842
0.244654
0.277126
0.243028
0.308256
0.241801
0.281462
0.288718
0.243587
0.272003
0.291719
0.238918
0.225507
0.309931
0.331249
0.297068
0.224452
0.319064
0.22678
0.240928
0.172175
0.17611
0.217025
0.248367
0.264731
0.240081
0.325301
0.0929856
0.161245
0.106727
0.110615
0.108892
0.245474
0.245808
0.149763
0.13495
0.129023
0.173288
0.0958512
0.15446
0.118726
0.0965967
0.218325
0.212187
0.16219
0.137958
0.554922
0.173889
0.597986
0.154205
0.050834
0.151641
0.15517
0.694829
0.115294
0.14092
0.150111
0.188879
0.210201
0.631359
0.429015
0.697018
0.382549
0.566566
0.491547
0.149768
0.342966
0.132394
0.395507
0.214154
0.204372
0.381935
0.145996
0.154046
0.399653
1.08409
1.18011
0.141387
0.148435
0.525134
0.11429
0.162567
0.114901
0.0589487
0.209534
0.321053
0.283889
0.208481
0.285958
0.272859
0.198959
0.236517
0.414158
0.413336
0.145544
0.150364
0.0860823
0.16329
0.327389
0.233272
0.571157
0.0802209
0.0818688
0.235469
0.152995
0.0813772
0.0819574
0.121509
0.252607
0.0652614
0.100676
0.0895547
0.198175
0.163263
0.0924883
0.15455
0.255201
0.0889602
0.162427
0.0866161
0.410934
0.27226
0.120788
0.155211
0.161549
0.051543
0.0709634
0.408353
0.155436
0.16326
0.0641376
0.1629
0.155291
0.207096
0.155076
0.162758
0.114835
0.154497
0.128004
0.103794
0.103126
0.477001
0.154747
0.233949
0.490489
0.162053
)
;

boundaryField
{
    patch0
    {
        type            epsilonWallFunction;
        value           nonuniform List<scalar> 
4010
(
0.146665
0.146665
0.150757
0.150757
0.151608
0.151608
0.156303
0.156303
0.148769
0.148769
0.153266
0.153266
0.157029
0.157029
0.155666
0.155666
0.157575
0.157575
0.154141
0.154141
0.158006
0.158006
0.159054
0.159054
0.0832109
0.0832109
0.159725
0.159725
0.157773
0.157773
0.157306
0.157306
0.0910244
0.0910244
0.160545
0.160545
0.138312
0.138312
0.160893
0.160893
0.062912
0.062912
0.1552
0.1552
0.144917
0.144917
0.161348
0.161348
0.154954
0.154954
0.155067
0.155067
0.155414
0.155414
0.157761
0.157761
0.127551
0.127551
0.156859
0.156859
0.135926
0.135926
0.154971
0.154971
0.102111
0.102111
0.10699
0.10699
0.158353
0.158353
0.152121
0.152121
0.155345
0.155345
0.136563
0.136563
0.15259
0.15259
0.121544
0.121544
0.155327
0.155327
0.0698192
0.0698192
0.155089
0.155089
0.136728
0.136728
0.154675
0.154675
0.0935262
0.0935262
0.13579
0.13579
0.160979
0.160979
0.0531883
0.0531883
0.0562881
0.0562881
0.144465
0.144465
0.072491
0.072491
0.155241
0.155241
0.14219
0.14219
0.0716274
0.0716274
0.159156
0.159156
0.132001
0.132001
0.158964
0.158964
0.156236
0.156236
0.154987
0.154987
0.143184
0.143184
0.157255
0.157255
0.138134
0.138134
0.151786
0.151786
0.13987
0.13987
0.161701
0.161701
0.155915
0.155915
0.154148
0.154148
0.0999527
0.0999527
0.141165
0.141165
0.0827091
0.0827091
0.156715
0.156715
0.150451
0.150451
0.15811
0.15811
0.158075
0.158075
0.0970759
0.0970759
0.162193
0.162193
0.15971
0.15971
0.161231
0.161231
0.143393
0.143393
0.164354
0.164354
0.155405
0.155405
0.152603
0.152603
0.0644086
0.0644086
0.133329
0.133329
0.154805
0.154805
0.159349
0.159349
0.158244
0.158244
0.0535953
0.0535953
0.0752749
0.0752749
0.156138
0.156138
0.155145
0.155145
0.0793626
0.0793626
0.087433
0.087433
0.0723671
0.0723671
0.131583
0.131583
0.162264
0.162264
0.163714
0.163714
0.155159
0.155159
0.0922009
0.0922009
0.134668
0.134668
0.0674362
0.0674362
0.155452
0.155452
0.15517
0.15517
0.0937
0.0937
0.163013
0.163013
0.112986
0.112986
0.104457
0.104457
0.154687
0.154687
0.0837192
0.0837192
0.162506
0.162506
0.102153
0.102153
0.151125
0.151125
0.15666
0.15666
0.161712
0.161712
0.0627379
0.0627379
0.140795
0.140795
0.156861
0.156861
0.154042
0.154042
0.162422
0.162422
0.127015
0.127015
0.174926
0.174926
0.0612966
0.0612966
0.0668813
0.0668813
0.156048
0.156048
0.116096
0.116096
0.10148
0.10148
0.160211
0.160211
0.0920193
0.0920193
0.284376
0.284376
0.162805
0.162805
0.120095
0.120095
0.579449
0.579449
0.156628
0.156628
0.0741496
0.0741496
0.0998987
0.0998987
0.131554
0.131554
0.109229
0.109229
0.161197
0.161197
0.154303
0.154303
0.160943
0.160943
0.156582
0.156582
1.08642
1.08642
1.08642
0.89014
0.89014
0.89014
0.141108
0.141108
0.133511
0.133511
0.112822
0.112822
0.0906966
0.0906966
0.15451
0.15451
0.153757
0.153757
0.142886
0.142886
0.357651
0.357651
0.357651
0.100457
0.100457
0.125263
0.125263
0.146006
0.146006
0.124892
0.124892
0.171065
0.171065
0.137601
0.137601
0.162632
0.162632
1.14017
1.14017
0.157787
0.157787
0.0879698
0.0879698
0.13206
0.13206
0.186779
0.186779
0.138339
0.138339
0.107832
0.107832
0.130797
0.130797
0.218217
0.218217
0.162704
0.162704
0.0975237
0.0975237
0.111256
0.111256
0.14796
0.14796
0.163627
0.163627
0.155022
0.155022
0.16095
0.16095
0.136588
0.136588
0.156831
0.156831
0.323794
0.323794
0.153567
0.153567
0.138151
0.138151
0.150929
0.150929
0.156886
0.156886
0.160492
0.160492
0.138458
0.138458
0.0511187
0.0511187
0.144743
0.144743
0.110063
0.110063
0.154694
0.154694
0.163222
0.163222
0.159093
0.159093
0.123801
0.123801
0.151464
0.151464
0.162756
0.162756
0.143547
0.143547
0.144018
0.144018
0.38217
0.38217
0.38217
0.156345
0.156345
0.142284
0.142284
0.144779
0.144779
0.14569
0.14569
0.381778
0.381778
0.153455
0.153455
0.115046
0.115046
0.153799
0.153799
0.133583
0.133583
0.153378
0.153378
0.1489
0.1489
0.101824
0.101824
0.0868076
0.0868076
0.526745
0.526745
0.526745
0.199997
0.199997
0.105821
0.105821
0.160378
0.160378
0.149074
0.149074
0.155744
0.155744
0.16203
0.16203
0.154282
0.154282
0.130689
0.130689
0.152238
0.152238
0.160091
0.160091
0.132989
0.132989
0.152293
0.152293
0.124426
0.124426
0.159753
0.159753
0.156177
0.156177
0.156573
0.156573
0.162087
0.162087
0.165702
0.165702
0.152439
0.152439
0.149734
0.149734
0.421859
0.421859
0.155638
0.155638
0.148883
0.148883
0.382214
0.382214
0.15677
0.15677
0.694708
0.694708
0.694708
0.160644
0.160644
0.155497
0.155497
0.132609
0.132609
0.408184
0.408184
0.408184
0.156428
0.156428
0.154624
0.154624
0.161251
0.161251
0.115074
0.115074
0.785203
0.785203
0.0786437
0.0786437
0.157822
0.157822
0.161247
0.161247
0.16076
0.16076
0.164988
0.164988
0.146254
0.146254
0.249536
0.249536
0.154912
0.154912
0.112389
0.112389
0.163531
0.163531
0.159308
0.159308
0.154881
0.154881
0.155821
0.155821
0.139626
0.139626
0.157122
0.157122
0.143243
0.143243
0.140815
0.140815
0.154791
0.154791
0.161718
0.161718
0.154802
0.154802
0.15542
0.15542
0.0803027
0.0803027
0.162819
0.162819
0.0787979
0.0787979
0.424659
0.424659
0.152274
0.152274
0.14748
0.14748
0.0923365
0.0923365
0.156071
0.156071
0.155374
0.155374
0.164242
0.164242
0.158936
0.158936
0.156627
0.156627
0.121114
0.121114
0.151587
0.151587
0.332196
0.332196
0.618526
0.618526
0.618526
0.156015
0.156015
0.156388
0.156388
0.127986
0.127986
0.159448
0.159448
0.162337
0.162337
0.285377
0.285377
0.158404
0.158404
0.155526
0.155526
0.146488
0.146488
0.150751
0.150751
0.156661
0.156661
0.159978
0.159978
0.058501
0.058501
0.142528
0.142528
0.15879
0.15879
0.110493
0.110493
0.161286
0.161286
0.15942
0.15942
0.512354
0.512354
0.512354
0.129769
0.129769
0.161425
0.161425
0.154111
0.154111
0.159538
0.159538
0.155978
0.155978
0.0892642
0.0892642
0.161951
0.161951
0.155952
0.155952
0.157647
0.157647
0.0899413
0.0899413
0.153554
0.153554
0.157132
0.157132
0.154684
0.154684
0.163894
0.163894
0.0893089
0.0893089
0.14811
0.14811
0.159018
0.159018
0.151552
0.151552
0.151039
0.151039
0.152682
0.152682
0.154097
0.154097
0.137413
0.137413
0.151805
0.151805
0.155718
0.155718
0.165426
0.165426
0.155997
0.155997
0.155952
0.155952
0.160459
0.160459
0.161718
0.161718
0.15366
0.15366
0.155454
0.155454
0.154509
0.154509
0.160222
0.160222
0.157491
0.157491
0.156384
0.156384
0.15505
0.15505
0.154317
0.154317
0.157608
0.157608
0.144862
0.144862
0.16576
0.16576
0.154238
0.154238
0.154632
0.154632
0.122987
0.122987
0.158268
0.158268
0.15638
0.15638
0.529686
0.529686
0.155649
0.155649
0.153293
0.153293
0.155733
0.155733
0.154768
0.154768
0.796341
0.796341
0.427641
0.427641
0.159985
0.159985
0.0814442
0.0814442
0.165074
0.165074
0.0501007
0.0501007
0.159054
0.159054
0.155804
0.155804
0.113503
0.113503
0.156362
0.156362
0.158709
0.158709
0.160508
0.160508
0.155169
0.155169
0.154705
0.154705
0.149573
0.149573
0.154507
0.154507
0.155053
0.155053
0.157554
0.157554
0.156424
0.156424
0.16191
0.16191
0.153704
0.153704
0.155622
0.155622
0.156378
0.156378
0.154793
0.154793
0.263861
0.263861
0.15827
0.15827
0.157821
0.157821
0.154544
0.154544
0.155658
0.155658
0.155926
0.155926
0.163975
0.163975
0.156208
0.156208
0.155278
0.155278
0.154823
0.154823
0.162366
0.162366
0.155242
0.155242
0.155185
0.155185
0.15476
0.15476
0.153809
0.153809
0.495863
0.495863
0.154247
0.154247
0.156375
0.156375
0.155206
0.155206
0.157617
0.157617
0.710622
0.710622
0.710622
0.154632
0.154632
0.154456
0.154456
0.162577
0.162577
0.156453
0.156453
0.141133
0.141133
0.160196
0.160196
0.131513
0.131513
0.0849106
0.0849106
0.557975
0.557975
0.557975
0.154822
0.154822
0.163337
0.163337
0.155238
0.155238
0.155606
0.155606
0.154595
0.154595
0.156052
0.156052
0.154094
0.154094
0.15922
0.15922
0.155944
0.155944
0.157643
0.157643
0.153907
0.153907
0.164596
0.164596
0.158627
0.158627
0.154826
0.154826
0.161046
0.161046
0.159063
0.159063
0.15551
0.15551
0.163739
0.163739
0.0968971
0.0968971
0.154457
0.154457
0.16035
0.16035
0.164048
0.164048
0.1416
0.1416
0.154242
0.154242
0.154606
0.154606
0.154849
0.154849
0.165064
0.165064
0.154654
0.154654
0.153824
0.153824
0.157969
0.157969
0.154603
0.154603
0.16085
0.16085
0.101774
0.101774
0.157754
0.157754
0.154391
0.154391
0.155509
0.155509
0.154504
0.154504
0.156303
0.156303
0.131896
0.131896
0.155254
0.155254
1.46283
1.46283
1.46283
0.156009
0.156009
0.157656
0.157656
0.156268
0.156268
0.154885
0.154885
0.157305
0.157305
0.154114
0.154114
0.156913
0.156913
0.162297
0.162297
0.154476
0.154476
0.156299
0.156299
0.162154
0.162154
0.157625
0.157625
0.153665
0.153665
0.155721
0.155721
0.165503
0.165503
0.154209
0.154209
0.100508
0.100508
0.153628
0.153628
0.140874
0.140874
0.154895
0.154895
0.154911
0.154911
0.157319
0.157319
0.158374
0.158374
0.159729
0.159729
0.154357
0.154357
0.153874
0.153874
0.146125
0.146125
0.162615
0.162615
0.155547
0.155547
0.165327
0.165327
0.140635
0.140635
0.15873
0.15873
0.155234
0.155234
0.156095
0.156095
0.155662
0.155662
0.158205
0.158205
0.154533
0.154533
0.154913
0.154913
0.154109
0.154109
0.15431
0.15431
0.154365
0.154365
0.15589
0.15589
0.154437
0.154437
0.163692
0.163692
0.0993965
0.0993965
0.154426
0.154426
0.153737
0.153737
0.160449
0.160449
0.158883
0.158883
0.163624
0.163624
0.155414
0.155414
0.154597
0.154597
0.154346
0.154346
0.152481
0.152481
0.159329
0.159329
0.157269
0.157269
0.155707
0.155707
0.154159
0.154159
0.105781
0.105781
0.153747
0.153747
0.157853
0.157853
0.154248
0.154248
0.153897
0.153897
0.160586
0.160586
0.163045
0.163045
0.164073
0.164073
0.154607
0.154607
0.157052
0.157052
0.154626
0.154626
0.154629
0.154629
0.154082
0.154082
0.156076
0.156076
0.158513
0.158513
0.155782
0.155782
0.153493
0.153493
0.157509
0.157509
0.164672
0.164672
0.161091
0.161091
0.157216
0.157216
0.156058
0.156058
0.149099
0.149099
0.151093
0.151093
0.154215
0.154215
0.157277
0.157277
0.153414
0.153414
0.158731
0.158731
0.153777
0.153777
0.154761
0.154761
0.146826
0.146826
0.15461
0.15461
0.157964
0.157964
0.155452
0.155452
0.118696
0.118696
0.154089
0.154089
0.153896
0.153896
0.154079
0.154079
0.150979
0.150979
0.161396
0.161396
0.16231
0.16231
0.154218
0.154218
0.138008
0.138008
0.149079
0.149079
0.154873
0.154873
0.162837
0.162837
0.154204
0.154204
0.154334
0.154334
0.15609
0.15609
0.153554
0.153554
0.154129
0.154129
0.15461
0.15461
0.153524
0.153524
0.149027
0.149027
0.149322
0.149322
0.136793
0.136793
0.154032
0.154032
0.153356
0.153356
0.0985426
0.0985426
0.154344
0.154344
0.15573
0.15573
0.155101
0.155101
0.164915
0.164915
0.160666
0.160666
0.141202
0.141202
0.153796
0.153796
0.162775
0.162775
0.154268
0.154268
0.154104
0.154104
0.154372
0.154372
0.153753
0.153753
0.154378
0.154378
0.154319
0.154319
0.120763
0.120763
0.159108
0.159108
0.154251
0.154251
0.153873
0.153873
0.155206
0.155206
0.158675
0.158675
0.154376
0.154376
0.140793
0.140793
0.152208
0.152208
0.158052
0.158052
0.153067
0.153067
0.163446
0.163446
0.154633
0.154633
0.153999
0.153999
0.153429
0.153429
0.335986
0.335986
0.145277
0.145277
0.150865
0.150865
0.15958
0.15958
0.154375
0.154375
0.16467
0.16467
0.154599
0.154599
0.153263
0.153263
0.109391
0.109391
0.157682
0.157682
0.156871
0.156871
0.13981
0.13981
0.153594
0.153594
0.158199
0.158199
0.155784
0.155784
0.163721
0.163721
0.155227
0.155227
0.152807
0.152807
0.153958
0.153958
0.156701
0.156701
0.154488
0.154488
0.163881
0.163881
0.153792
0.153792
0.154839
0.154839
0.156997
0.156997
0.151341
0.151341
0.126551
0.126551
0.150528
0.150528
0.160762
0.160762
0.163747
0.163747
0.159631
0.159631
0.153825
0.153825
0.157958
0.157958
0.144084
0.144084
0.153875
0.153875
0.154966
0.154966
0.15576
0.15576
0.154232
0.154232
0.155489
0.155489
0.153997
0.153997
0.165076
0.165076
0.153198
0.153198
0.15348
0.15348
0.115694
0.115694
0.153979
0.153979
0.137986
0.137986
0.154053
0.154053
0.161235
0.161235
0.154121
0.154121
0.154146
0.154146
0.153611
0.153611
0.153896
0.153896
0.153565
0.153565
0.15686
0.15686
0.153763
0.153763
0.155776
0.155776
0.154063
0.154063
0.155531
0.155531
0.153178
0.153178
0.154151
0.154151
0.148945
0.148945
0.157005
0.157005
0.154139
0.154139
0.154164
0.154164
0.153089
0.153089
0.16316
0.16316
0.153865
0.153865
0.154031
0.154031
0.154614
0.154614
0.1529
0.1529
0.148356