/*--------------------------------*- C++ -*----------------------------------*\
  =========                 |
  \\      /  F ield         | OpenFOAM: The Open Source CFD Toolbox
   \\    /   O peration     | Website:  https://openfoam.org
    \\  /    A nd           | Version:  8
     \\/     M anipulation  |
\*---------------------------------------------------------------------------*/
FoamFile
{
    version     2.0;
    format      ascii;
    class       volScalarField;
    location    "0.15";
    object      k;
}
// * * * * * * * * * * * * * * * * * * * * * * * * * * * * * * * * * * * * * //

dimensions      [0 2 -2 0 0 0 0];

internalField   nonuniform List<scalar> 
1924
(
0.069273
0.070563
0.0706368
0.0721447
0.0698383
0.0711371
0.0723786
0.0719008
0.072544
0.0714667
0.0726675
0.0730196
0.0472394
0.0732268
0.0726506
0.0725052
0.0496772
0.0734939
0.0666989
0.0736068
0.0393137
0.0718565
0.0681714
0.0737497
0.071777
0.0718101
0.0719204
0.0727121
0.0627759
0.0723672
0.0650649
0.0717816
0.053846
0.0551907
0.0728537
0.0707631
0.0719006
0.0658251
0.0710154
0.0600642
0.0718942
0.042258
0.0718179
0.0655827
0.0717573
0.0509711
0.0659971
0.0736751
0.0350278
0.0363055
0.0685405
0.0431337
0.0718702
0.0678379
0.0429813
0.073069
0.0647436
0.0730711
0.0722585
0.0717827
0.0677565
0.0724901
0.0663242
0.0707554
0.0670569
0.0738926
0.0720726
0.0714484
0.0532049
0.0674276
0.0471014
0.0723211
0.0703351
0.0727628
0.0727532
0.052713
0.0740396
0.0732691
0.0737478
0.0680578
0.0746698
0.0719166
0.0710875
0.039794
0.0647333
0.0717095
0.0731927
0.0727981
0.0351491
0.0439953
0.0721431
0.0718342
0.0457559
0.0488623
0.0429872
0.0643459
0.0740576
0.0744759
0.0718372
0.0507352
0.0650569
0.0409785
0.0719297
0.0718414
0.0511216
0.0743043
0.0576179
0.0550942
0.0716879
0.0473109
0.0741288
0.0539229
0.0705844
0.0723244
0.073893
0.0389821
0.067071
0.0723658
0.07149
0.0741106
0.0628815
0.0410309
0.0386752
0.0407223
0.0721136
0.0588922
0.0539815
0.0734282
0.0502768
0.0537455
0.0742184
0.0600323
0.0425205
0.0723254
0.0434403
0.0531889
0.0641518
0.0563637
0.0737049
0.0715775
0.0736637
0.0722804
0.0535855
0.0466842
0.0671073
0.0649731
0.0579796
0.0498675
0.0716319
0.0713983
0.0680396
0.0416349
0.053413
0.0617477
0.0687246
0.0618435
0.0404295
0.0661145
0.074155
0.0647082
0.0726684
0.0496366
0.0640208
0.0428601
0.0665728
0.0559387
0.0637249
0.0395398
0.0741962
0.0522082
0.0570107
0.0693327
0.0744971
0.0717942
0.0736549
0.0656308
0.0723606
0.0441199
0.0712784
0.0660315
0.0703855
0.072373
0.0735134
0.0662588
0.0341251
0.0687633
0.0563902
0.0716273
0.074353
0.0730767
0.061685
0.070492
0.0741902
0.0678261
0.0680671
0.0435113
0.0721859
0.0675331
0.0683852
0.0684569
0.0473116
0.0714452
0.0583507
0.0712512
0.0646241
0.0711938
0.0696047
0.0529893
0.0482916
0.0317484
0.0448493
0.0551034
0.0734539
0.0697378
0.071984
0.0739972
0.0715596
0.0639137
0.0707166
0.073395
0.0645804
0.0710034
0.0615146
0.0732629
0.0720411
0.0722706
0.07398
0.0750923
0.0708454
0.0698888
0.0419487
0.0719871
0.0697209
0.0454064
0.072338
0.0386504
0.0735338
0.0718146
0.0642305
0.0454524
0.0722301
0.0716098
0.073719
0.0576938
0.0633055
0.0451508
0.0725893
0.073739
0.0735975
0.0748944
0.0692147
0.0468547
0.0716745
0.0573435
0.0744455
0.0731242
0.0717507
0.0720291
0.066732
0.0723597
0.0678663
0.0669596
0.0717213
0.0738982
0.071727
0.071922
0.0467114
0.0742573
0.0458062
0.0512965
0.0707548
0.069476
0.0505841
0.0721232
0.0719042
0.0746336
0.0729598
0.0722979
0.0603037
0.0705754
0.0472176
0.0478145
0.072105
0.0721682
0.0633371
0.073186
0.0740619
0.0503723
0.0728071
0.0719192
0.068836
0.0704397
0.0723094
0.0733278
0.0372314
0.0678987
0.0729654
0.0555955
0.0737745
0.073157
0.0513506
0.0632061
0.0737704
0.0715058
0.0731725
0.0720984
0.0502236
0.0739312
0.0720822
0.0726566
0.0487822
0.0713342
0.0724282
0.0716923
0.0745433
0.0500339
0.0694569
0.0730136
0.0705262
0.0704055
0.0710563
0.0714076
0.0657648
0.0708057
0.0720166
0.0749946
0.0720792
0.0720897
0.0734855
0.073862
0.0712787
0.0719281
0.0716368
0.0733956
0.0725858
0.0722237
0.0718021
0.0714482
0.0725899
0.0682558
0.0750991
0.0715744
0.071674
0.0599549
0.0728026
0.0722159
0.0463709
0.0719884
0.0712501
0.072022
0.0717152
0.0613384
0.0532118
0.0733284
0.0458776
0.0749341
0.0338547
0.0730429
0.072043
0.0581991
0.0722159
0.0729369
0.0734887
0.0718392
0.0716953
0.0698301
0.071634
0.0717547
0.0725822
0.072166
0.0739174
0.0712891
0.0719883
0.0722146
0.071722
0.0385079
0.072802
0.0726646
0.0716444
0.0719908
0.072074
0.0746165
0.0721583
0.0718102
0.0716751
0.0740572
0.0718759
0.0718441
0.0717118
0.0712591
0.053941
0.071552
0.0722156
0.0718503
0.0725703
0.0363441
0.0716715
0.0716164
0.0741281
0.0722384
0.0674123
0.0734469
0.0631334
0.0482539
0.0360101
0.0717301
0.0743562
0.07186
0.0719838
0.0716594
0.0721189
0.0715033
0.0730991
0.0719769
0.0726126
0.0714413
0.0747377
0.0729108
0.0717417
0.0736672
0.0730446
0.0719289
0.0744788
0.0510694
0.0716159
0.073439
0.0745898
0.0675202
0.0715488
0.0716624
0.0717385
0.0748801
0.0716776
0.0714172
0.0727021
0.0716615
0.073592
0.0548138
0.0726036
0.0715947
0.0719196
0.0716302
0.07216
0.0644765
0.0718646
0.0572563
0.0721044
0.0726505
0.0721866
0.0717495
0.0725035
0.0715079
0.072366
0.0740449
0.0716212
0.0721974
0.073991
0.0726019
0.0713668
0.0720097
0.0750226
0.0715376
0.0536258
0.0713554
0.0665027
0.0717526
0.0717573
0.0725135
0.0728137
0.0732882
0.0715836
0.071432
0.0689923
0.0741321
0.071959
0.0749847
0.0671991
0.0729506
0.0718579
0.0721264
0.0719952
0.0727827
0.0716391
0.0717579
0.0715055
0.0715686
0.0715861
0.0720625
0.0716087
0.0744726
0.0539404
0.0716054
0.0713883
0.0734754
0.0729882
0.0744406
0.0719139
0.0716591
0.0715799
0.0710059
0.0731248
0.0724916
0.0720003
0.0715209
0.0543624
0.071391
0.0726711
0.071549
0.0714385
0.0735095
0.074322
0.0745771
0.0716621
0.0724222
0.0716679
0.0716686
0.0714964
0.0721286
0.0728751
0.0720285
0.0713109
0.072565
0.0747602
0.0736639
0.0724783
0.0721223
0.0699619
0.0705132
0.0715381
0.0724997
0.0712864
0.072951
0.0714002
0.0717161
0.0687044
0.0716628
0.0727124
0.0719355
0.0593343
0.0714983
0.0714378
0.07149
0.0705316
0.0738334
0.0740362
0.0715392
0.0663716
0.0698948
0.0717452
0.0742072
0.0715351
0.0715761
0.0721248
0.0713295
0.0715111
0.0716741
0.0713018
0.0699563
0.0700198
0.0659644
0.0714801
0.0712672
0.0532699
0.0715793
0.0720175
0.0718235
0.0748367
0.0735411
0.0674128
0.0714058
0.0741781
0.0715552
0.0715032
0.0715881
0.0714663
0.07159
0.0715692
0.0594799
0.0730551
0.0715583
0.07143
0.0718491
0.07293
0.0715893
0.0673412
0.0708986
0.0727311
0.0711787
0.0743825
0.0716842
0.0714701
0.0712894
0.0482932
0.0687516
0.0705134
0.0731996
0.0715888
0.0747945
0.0716592
0.0712385
0.0567932
0.0726173
0.0723731
0.0669253
0.0713415
0.0727851
0.072036
0.0744753
0.0718522
0.0710945
0.0714569
0.0723148
0.0716354
0.0745298
0.0714042
0.0717343
0.0724133
0.0703636
0.0626669
0.0703526
0.0735609
0.0744748
0.0732142
0.0714148
0.0727112
0.0683585
0.0714414
0.0717738
0.0720275
0.0715543
0.0719371
0.0714695
0.0749103
0.0712185
0.071305
0.0590403
0.0714637
0.0664345
0.0714873
0.0737048
0.0715088
0.0715167
0.0713467
0.0714372
0.0713334
0.0723634
0.0713948
0.0720266
0.0714904
0.0719605
0.0712096
0.0715184
0.0698154
0.0724159
0.0715257
0.0715225
0.0711821
0.0743191
0.0714275
0.0714889
0.0716743
0.0711439
0.0697475
0.0739151
0.0715232
0.0656469
0.0713928
0.0718587
0.0712316
0.0713148
0.0713447
0.0742056
0.0568039
0.0743983
0.0722766
0.0739955
0.0728207
0.072007
0.0703597
0.0714988
0.0727996
0.0726742
0.0716394
0.0715771
0.0713778
0.0725761
0.0715201
0.0681451
0.0731132
0.0713147
0.0720844
0.0723095
0.0734341
0.0714004
0.0711574
0.0724056
0.0714584
0.0730453
0.0713176
0.0713351
0.0737048
0.0711426
0.0714207
0.0633472
0.0677788
0.0714248
0.0714527
0.0713932
0.073242
0.0712464
0.0711813
0.070757
0.0714545
0.0688411
0.0713652
0.0719488
0.07146
0.0711265
0.0723111
0.0593688
0.0718978
0.071716
0.0741875
0.0713879
0.0719317
0.0355096
0.0399624
0.0599121
0.0713153
0.073402
0.0714616
0.0713778
0.07014
0.0713129
0.0715712
0.0713542
0.0715175
0.0714382
0.0716288
0.0711069
0.0689169
0.0714637
0.0737056
0.0331507
0.0732147
0.0470454
0.0712542
0.0713869
0.0711988
0.0734457
0.0713185
0.0712875
0.0728211
0.066673
0.0696085
0.0723111
0.0598597
0.0631908
0.0679814
0.0716577
0.0618862
0.0714638
0.0718846
0.0730146
0.0713007
0.0713296
0.0713336
0.071255
0.0711036
0.0713605
0.0717824
0.0713552
0.0704883
0.0714011
0.0669751
0.072725
0.07121
0.0713252
0.0712072
0.0713936
0.0710708
0.0733869
0.0725386
0.0564735
0.0735449
0.0629583
0.0719834
0.0713756
0.0723532
0.0712258
0.0712978
0.0710221
0.0724595
0.0714032
0.0712486
0.0729826
0.0728328
0.06401
0.0713787
0.0710503
0.0580331
0.0717199
0.071296
0.0594807
0.0728334
0.0720997
0.0652001
0.0717213
0.071408
0.0712145
0.0652773
0.0729291
0.0711605
0.0367342
0.0710713
0.0712319
0.0715649
0.0702454
0.0712819
0.0715404
0.0709859
0.0722953
0.0721313
0.0706283
0.0714571
0.0729121
0.0712117
0.0715015
0.0714098
0.0712306
0.0718361
0.0719837
0.0710847
0.0712986
0.0712353
0.0712923
0.0730225
0.0715167
0.072214
0.0332491
0.0735293
0.0395647
0.071315
0.0712689
0.0387501
0.0708952
0.0713188
0.0712017
0.0716108
0.0709264
0.0726512
0.0714095
0.0709574
0.0726571
0.0717778
0.0713437
0.0708809
0.0710907
0.0674884
0.0691902
0.0714928
0.0720532
0.0713462
0.0588532
0.0709408
0.0713532
0.0686881
0.0712574
0.0710555
0.0711962
0.0720676
0.0709479
0.0708547
0.0723712
0.0710897
0.0572751
0.0718452
0.0710024
0.0332928
0.0713303
0.0590389
0.0709623
0.071565
0.0597469
0.0712362
0.0712159
0.0713557
0.0736468
0.0714076
0.0714522
0.0710816
0.0706708
0.0429237
0.071844
0.0723891
0.0724783
0.0725347
0.0716616
0.0708481
0.0718674
0.0711026
0.0612815
0.0709707
0.0593152
0.0712381
0.0711852
0.0721673
0.0700584
0.0712613
0.0720805
0.0712566
0.0567549
0.0724591
0.04776
0.0627882
0.0713594
0.0704646
0.0712286
0.0709722
0.0706387
0.0644569
0.0718156
0.0710667
0.0696769
0.0714812
0.0711088
0.0706244
0.0721811
0.0726488
0.0712737
0.0709663
0.0716128
0.0711917
0.0705164
0.0712989
0.0688131
0.0714716
0.0705397
0.0712768
0.0713596
0.0694684
0.0541813
0.0711033
0.0653881
0.0407046
0.0712907
0.0709534
0.0713019
0.0708295
0.0717047
0.0705002
0.0711629
0.0440167
0.0705511
0.071428
0.0433802
0.070788
0.0352551
0.0709345
0.0715129
0.0696129
0.0688501
0.0705526
0.073184
0.067165
0.0713081
0.0719036
0.0710459
0.0712047
0.0684516
0.0685525
0.0705462
0.069409
0.0711966
0.0718325
0.0562555
0.0711944
0.0712194
0.0713904
0.0585454
0.0716577
0.0712231
0.0704566
0.0705327
0.0711637
0.0713489
0.0709339
0.0647923
0.0585924
0.0701081
0.0717878
0.0713095
0.0687838
0.0705122
0.0701173
0.068317
0.0700798
0.0714068
0.0714207
0.0709966
0.0711359
0.0698998
0.0700903
0.0714606
0.070119
0.0707455
0.0717279
0.0738957
0.0722154
0.0660551
0.0704852
0.0703309
0.0715548
0.0712459
0.0721142
0.0710056
0.071249
0.0712331
0.0701151
0.0710206
0.072099
0.0717283
0.0721716
0.0329771
0.0668163
0.0670866
0.0712564
0.0701041
0.0713036
0.0730584
0.0715826
0.0633881
0.0700688
0.0703132
0.0713735
0.0587405
0.0624262
0.0700854
0.0739012
0.0709663
0.0709087
0.0703715
0.0716876
0.0729316
0.0713346
0.0715009
0.0711327
0.066752
0.0711696
0.0711625
0.0712584
0.0700595
0.0719234
0.0707222
0.0704533
0.074808
0.0734354
0.0711057
0.0718565
0.0712915
0.0686548
0.0711816
0.0700081
0.0686326
0.0556501
0.0708265
0.0657817
0.0717319
0.0709921
0.0664361
0.0669087
0.0715901
0.0682661
0.0700276
0.0685991
0.0711849
0.0712557
0.0404182
0.0713469
0.0685599
0.0708789
0.0379717
0.0712055
0.0685142
0.057564
0.0701031
0.0686644
0.0643025
0.0711977
0.0715376
0.0711479
0.0684624
0.0713122
0.0391122
0.0370613
0.0704188
0.0712077
0.0716962
0.074802
0.0712451
0.0697723
0.0672201
0.0684062
0.068719
0.0422922
0.0710997
0.0509368
0.0686558
0.0711272
0.071287
0.0710732
0.0702104
0.0712551
0.0243119
0.0291077
0.07323
0.0706164
0.0699906
0.0719517
0.0671936
0.070961
0.0711338
0.0698524
0.0713791
0.0718611
0.0708529
0.0613357
0.0712066
0.067163
0.0423674
0.0633443
0.071227
0.0712187
0.0716075
0.067126
0.0672477
0.0708466
0.0699537
0.0650919
0.0621585
0.0670815
0.071258
0.0317609
0.0583069
0.0685634
0.0683486
0.0599902
0.0703837
0.0670304
0.0365224
0.0312011
0.0711969
0.0639494
0.0715609
0.0711886
0.0716881
0.0719124
0.0705734
0.0711785
0.0709358
0.0711561
0.0711445
0.0317614
0.0539281
0.0699496
0.0400905
0.0667161
0.071158
0.0602442
0.0669752
0.0718564
0.0672579
0.0673155
0.0681116
0.0730326
0.0711962
0.0711576
0.0580342
0.0733026
0.071171
0.0711367
0.0672432
0.0714044
0.0673529
0.0711079
0.0625861
0.0401908
0.0682935
0.0710656
0.0709284
0.050067
0.0624883
0.0710393
0.0550858
0.034371
0.0707806
0.0636734
0.0708127
0.062391
0.0683052
0.0710987
0.0716029
0.0711482
0.0626971
0.0711351
0.0622917
0.0703483
0.0677042
0.0595485
0.0707518
0.0621915
0.0716765
0.0696042
0.0712839
0.0608726
0.0659018
0.0707964
0.0669168
0.0708862
0.0314176
0.0320773
0.0710916
0.0699085
0.0620931
0.0702763
0.0715616
0.0699852
0.0670946
0.051233
0.0524039
0.0700497
0.0682448
0.0710982
0.0716581
0.0703726
0.0703253
0.0703883
0.0628999
0.0710572
0.0584282
0.0717255
0.0707776
0.0710896
0.0619582
0.0579971
0.0714121
0.0620004
0.0711095
0.0583587
0.0403895
0.07111
0.0582947
0.0704049
0.0582284
0.0707225
0.0373065
0.0650986
0.0637005
0.0510549
0.0711
0.0707512
0.0581583
0.0302647
0.0650714
0.0668561
0.0673712
0.0628906
0.0580865
0.0585404
0.0717266
0.0708948
0.0623487
0.0665103
0.0627814
0.0555674
0.0703133
0.0712967
0.070778
0.063142
0.0678663
0.0602488
0.0706919
0.0687124
0.0400455
0.0703881
0.0500089
0.0710046
0.0708046
0.0710434
0.0698686
0.0688719
0.0580133
0.0703588
0.0645808
0.0710132
0.0665461
0.0687108
0.070397
0.0710611
0.0619191
0.0339124
0.071031
0.0682006
0.0630833
0.0715804
0.0688182
0.0551457
0.0703299
0.0347797
0.0588517
0.0686866
0.0745326
0.0367372
0.0626861
0.0668002
0.070283
0.0736454
0.0625471
0.0676669
0.0709677
0.0377785
0.0674313
0.0688044
0.0675742
0.0579392
0.0710623
0.0331124
0.0673936
0.0709118
0.0586891
0.070658
0.0715383
0.0587953
0.0710529
0.0710558
0.0692201
0.0663649
0.0691052
0.0713931
0.0425465
0.0510243
0.0696317
0.0591786
0.0629769
0.0289557
0.0709974
0.0675447
0.0450136
0.0702981
0.0618553
0.0674008
0.0716946
0.0501297
0.0408726
0.0626118
0.0686643
0.0467195
0.0287884
0.0337393
0.0617101
0.0668399
0.0588276
0.0577417
0.0702789
0.0707925
0.0707428
0.0687978
0.0703915
0.0709219
0.0394833
0.0710113
0.0296077
0.0325492
0.0712821
0.0673775
0.0624435
0.036182
0.0708606
0.0586018
0.0698299
0.0403298
0.0617634
0.0400384
0.0706213
0.0399657
0.0668828
0.0570125
0.0397732
0.0715471
0.0456333
0.0675358
0.0681617
0.0366609
0.0395243
0.0626481
0.0392978
0.0632278
0.039214
0.0391054
0.0578609
0.0617477
0.0588448
0.0597301
0.047806
0.0364004
0.0389527
0.0709944
0.0660102
0.0702629
0.0709689
0.0625871
0.0667502
0.0622153
0.0705826
0.0717856
0.0709517
0.0408655
0.0623475
0.05398
0.0687879
0.0675742
0.0710047
0.0670941
0.0638831
0.027969
0.0609512
0.0388425
0.0716521
0.0714689
0.0708765
0.0618048
0.0675242
0.0581923
0.0627003
0.070225
0.0411195
0.065185
0.0686203
0.059217
0.0379993
0.053455
0.0588819
0.0621466
0.0673452
0.0705428
0.0410542
0.0709391
0.070245
0.0409293
0.0687737
0.0714967
0.0459335
0.0590019
0.0703723
0.0703474
0.0387777
0.0585422
0.0708242
0.0697924
0.0408889
0.0709015
0.057792
0.0587171
0.0701854
0.0328529
0.0709249
0.0497291
0.0707068
0.0713458
0.0708293
0.0584699
0.0632083
0.0707437
0.0581573
0.0712322
0.0566983
0.0675078
0.0407775
0.0423017
0.0390619
0.0419341
0.0681276
0.0444309
0.0708168
0.0627413
0.0575133
0.039908
0.0272439
0.0585734
0.0705021
0.0708529
0.0715216
0.0621534
0.0664443
0.0682217
0.0408584
0.0687555
0.0573071
0.0704559
0.0707694
0.0588973
0.070764
0.066706
0.0610319
0.0555388
0.0387583
0.0701449
0.0706617
0.0586248
0.0702095
0.0551243
0.0278112
0.0620677
0.0359937
0.0279776
0.0687342
0.0281583
0.0701015
0.0685231
0.0282974
0.0674868
0.0392713
0.0283896
0.0703735
0.0605765
0.0407372
0.0284402
0.0284571
0.0697551
0.0716885
0.070039
0.0672606
0.061768
0.0705972
0.0584146
0.0707536
0.0382101
0.0375944
0.0284422
0.0680971
0.062776
0.0687099
0.0382073
0.070555
0.0425462
0.0395507
0.0701553
0.0686784
0.0385358
0.0399179
0.06433
0.0523569
0.0283958
0.0381084
0.067462
0.0266935
0.0557526
0.0701174
0.0686099
0.0669702
0.0697095
0.0276169
0.0273571
0.0589038
0.0674343
0.0271339
0.0702456
0.038766
0.0698745
0.0577337
0.0383587
0.0260725
0.0296936
0.0394332
0.0645209
0.0527193
0.0706497
0.0673514
0.0674025
0.071437
0.0574049
0.0680673
0.0712725
0.0699864
0.0269558
0.071165
0.0615989
0.0666666
0.0367614
0.0703144
0.028319
0.0711483
0.0696165
0.0317635
0.0352407
0.0684273
0.0696016
0.0683714
0.0628596
0.0299896
0.0628476
0.0354896
0.0397591
0.0369793
0.0672034
0.0705099
0.0683527
0.0680206
0.0706874
0.0628401
0.0380328
0.0666299
0.0392443
0.0345665
0.0487818
0.0267474
0.0628049
0.0372858
0.0692788
0.0712628
0.0617439
0.0670809
0.0628284
0.0619164
0.0505514
0.0710286
0.0282122
0.0263452
0.0691758
0.030497
0.0262347
0.0703188
0.058869
0.058888
0.0326335
0.0678627
0.0297928
0.0395924
0.0700849
0.0712861
0.0310287
0.03781
0.0665871
0.0305779
0.0714869
0.0626781
0.0304023
0.0674818
0.0583066
0.0666531
0.0361238
0.0617297
0.0708281
0.0237238
0.024215
0.069865
0.0491075
0.0589053
0.0700033
0.0670091
0.0700378
0.0587835
0.0588959
0.0305034
0.0682009
0.068107
0.0664867
0.0702462
0.0671984
0.0580338
0.0400051
0.0320867
0.0619656
0.0709165
0.0619129
0.0559918
0.0635982
0.0402516
0.0295504
0.0677883
0.0616607
0.0404289
0.0695564
0.0387989
0.0280755
0.0584082
0.0647289
0.066091
0.0617219
0.0271286
0.0284245
0.0576877
0.0385
0.0400803
0.0405942
0.0594819
0.058825
0.0645412
0.067353
0.0617043
0.0341869
0.028568
0.0668052
0.0569955
0.0663538
0.0379053
0.0304887
0.0664363
0.0691486
0.0589018
0.0670515
0.0576227
0.0613007
0.0689365
0.0406431
0.0288901
0.0615968
0.0345948
0.0576513
0.0279694
0.057929
0.0283226
0.0397535
0.0292789
0.0664857
0.0255683
0.0659683
0.0392021
0.0610677
0.0580635
0.0275976
0.0401281
0.0590124
0.0389354
0.0390377
0.0275022
0.0612998
0.0257216
0.060847
0.0271782
0.052474
0.0652496
0.0564634
0.0290228
0.0302835
0.037795
0.0376643
0.0399156
0.0394981
0.0286609
0.0265844
0.0585648
0.060298
0.063971
0.0575951
0.0287337
0.0252452
0.0371663
0.0522128
0.0594558
0.0574221
0.0575306
0.0576908
0.063533
0.0572565
0.0277158
0.0385661
0.0561329
0.0303248
0.0370081
0.0270192
0.0359519
0.0516384
0.0544379
0.0250171
0.0263516
0.0207242
0.019897
0.0289863
0.0247855
0.0269734
0.0392908
0.0289811
0.0391608
0.0272546
0.0277205
0.0393461
0.026638
0.0279113
0.0388555
0.0373654
0.0290858
0.0304128
0.0282685
0.0372395
0.0296583
0.0375126
0.0245389
0.0195742
0.0198698
0.0363841
0.0250496
0.0261555
0.0389538
0.0300457
0.0508697
0.0737475
0.0558197
0.0571937
0.0565879
0.0391051
0.0246218
0.0701005
0.0656092
0.063511
0.0195476
0.0519301
0.0716229
0.0600549
0.0521891
0.0362342
0.0341966
0.0740408
0.0664041
0.0398634
0.0195511
0.0418921
0.0715399
0.0341151
0.0707048
0.071849
0.0463027
0.0592632
0.0665554
0.0702389
0.0182281
0.019388
0.0434706
0.0336556
0.0485479
0.0311807
0.0404558
0.0368279
0.0701019
0.0459077
0.0646078
0.0303851
0.0201253
0.0194533
0.0493208
0.0684164
0.0714894
0.0320668
0.0491137
0.0518698
0.0674961
0.0697148
0.0507932
0.0587233
0.0741583
0.0590642
0.037615
0.0345384
0.0287187
0.0466816
0.0330411
0.0477782
0.0394746
0.0319747
0.0359203
0.0292283
0.0291754
0.0687492
0.0700149
0.0488093
0.0743821
0.0312015
0.0340763
0.0532357
0.0465697
0.0473108
0.0349358
0.0709831
0.0470403
0.0473838
0.0612127
0.0243759
0.0405143
0.054451
0.0501001
0.0321891
0.0743355
0.0512433
0.0715633
0.023657
0.0500239
0.0740796
0.0490858
0.0427074
0.0251777
0.0610397
0.0718214
0.0738121
0.0343786
0.0429435
0.030536
0.0719198
0.0743366
0.0400616
0.0742234
0.0718839
0.0327416
0.0718196
0.0741814
0.0588486
0.0716357
0.0632805
0.0548614
0.0547577
0.0277114
0.0717172
0.0327682
0.0329827
0.0739665
)
;

boundaryField
{
    patch0
    {
        type            kqRWallFunction;
        value           nonuniform List<scalar> 
4010
(
0.069273
0.069273
0.070563
0.070563
0.0706368
0.0706368
0.0721447
0.0721447
0.0698383
0.0698383
0.0711371
0.0711371
0.0723786
0.0723786
0.0719008
0.0719008
0.072544
0.072544
0.0714667
0.0714667
0.0726675
0.0726675
0.0730196
0.0730196
0.0472394
0.0472394
0.0732268
0.0732268
0.0726506
0.0726506
0.0725052
0.0725052
0.0496772
0.0496772
0.0734939
0.0734939
0.0666989
0.0666989
0.0736068
0.0736068
0.0393137
0.0393137
0.0718565
0.0718565
0.0681714
0.0681714
0.0737497
0.0737497
0.071777
0.071777
0.0718101
0.0718101
0.0719204
0.0719204
0.0727121
0.0727121
0.0627759
0.0627759
0.0723672
0.0723672
0.0650649
0.0650649
0.0717816
0.0717816
0.053846
0.053846
0.0551907
0.0551907
0.0728537
0.0728537
0.0707631
0.0707631
0.0719006
0.0719006
0.0658251
0.0658251
0.0710154
0.0710154
0.0600642
0.0600642
0.0718942
0.0718942
0.042258
0.042258
0.0718179
0.0718179
0.0655827
0.0655827
0.0717573
0.0717573
0.0509711
0.0509711
0.0659971
0.0659971
0.0736751
0.0736751
0.0350278
0.0350278
0.0363055
0.0363055
0.0685405
0.0685405
0.0431337
0.0431337
0.0718702
0.0718702
0.0678379
0.0678379
0.0429813
0.0429813
0.073069
0.073069
0.0647436
0.0647436
0.0730711
0.0730711
0.0722585
0.0722585
0.0717827
0.0717827
0.0677565
0.0677565
0.0724901
0.0724901
0.0663242
0.0663242
0.0707554
0.0707554
0.0670569
0.0670569
0.0738926
0.0738926
0.0720726
0.0720726
0.0714484
0.0714484
0.0532049
0.0532049
0.0674276
0.0674276
0.0471014
0.0471014
0.0723211
0.0723211
0.0703351
0.0703351
0.0727628
0.0727628
0.0727532
0.0727532
0.052713
0.052713
0.0740396
0.0740396
0.0732691
0.0732691
0.0737478
0.0737478
0.0680578
0.0680578
0.0746698
0.0746698
0.0719166
0.0719166
0.0710875
0.0710875
0.039794
0.039794
0.0647333
0.0647333
0.0717095
0.0717095
0.0731927
0.0731927
0.0727981
0.0727981
0.0351491
0.0351491
0.0439953
0.0439953
0.0721431
0.0721431
0.0718342
0.0718342
0.0457559
0.0457559
0.0488623
0.0488623
0.0429872
0.0429872
0.0643459
0.0643459
0.0740576
0.0740576
0.0744759
0.0744759
0.0718372
0.0718372
0.0507352
0.0507352
0.0650569
0.0650569
0.0409785
0.0409785
0.0719297
0.0719297
0.0718414
0.0718414
0.0511216
0.0511216
0.0743043
0.0743043
0.0576179
0.0576179
0.0550942
0.0550942
0.0716879
0.0716879
0.0473109
0.0473109
0.0741288
0.0741288
0.0539229
0.0539229
0.0705844
0.0705844
0.0723244
0.0723244
0.073893
0.073893
0.0389821
0.0389821
0.067071
0.067071
0.0723658
0.0723658
0.07149
0.07149
0.0741106
0.0741106
0.0628815
0.0628815
0.0410309
0.0410309
0.0386752
0.0386752
0.0407223
0.0407223
0.0721136
0.0721136
0.0588922
0.0588922
0.0539815
0.0539815
0.0734282
0.0734282
0.0502768
0.0502768
0.0537455
0.0537455
0.0742184
0.0742184
0.0600323
0.0600323
0.0425205
0.0425205
0.0723254
0.0723254
0.0434403
0.0434403
0.0531889
0.0531889
0.0641518
0.0641518
0.0563637
0.0563637
0.0737049
0.0737049
0.0715775
0.0715775
0.0736637
0.0736637
0.0722804
0.0722804
0.0535855
0.0535855
0.0535855
0.0466842
0.0466842
0.0466842
0.0671073
0.0671073
0.0649731
0.0649731
0.0579796
0.0579796
0.0498675
0.0498675
0.0716319
0.0716319
0.0713983
0.0713983
0.0680396
0.0680396
0.0416349
0.0416349
0.0416349
0.053413
0.053413
0.0617477
0.0617477
0.0687246
0.0687246
0.0618435
0.0618435
0.0404295
0.0404295
0.0661145
0.0661145
0.074155
0.074155
0.0647082
0.0647082
0.0726684
0.0726684
0.0496366
0.0496366
0.0640208
0.0640208
0.0428601
0.0428601
0.0665728
0.0665728
0.0559387
0.0559387
0.0637249
0.0637249
0.0395398
0.0395398
0.0741962
0.0741962
0.0522082
0.0522082
0.0570107
0.0570107
0.0693327
0.0693327
0.0744971
0.0744971
0.0717942
0.0717942
0.0736549
0.0736549
0.0656308
0.0656308
0.0723606
0.0723606
0.0441199
0.0441199
0.0712784
0.0712784
0.0660315
0.0660315
0.0703855
0.0703855
0.072373
0.072373
0.0735134
0.0735134
0.0662588
0.0662588
0.0341251
0.0341251
0.0687633
0.0687633
0.0563902
0.0563902
0.0716273
0.0716273
0.074353
0.074353
0.0730767
0.0730767
0.061685
0.061685
0.070492
0.070492
0.0741902
0.0741902
0.0678261
0.0678261
0.0680671
0.0680671
0.0435113
0.0435113
0.0435113
0.0721859
0.0721859
0.0675331
0.0675331
0.0683852
0.0683852
0.0684569
0.0684569
0.0473116
0.0473116
0.0714452
0.0714452
0.0583507
0.0583507
0.0712512
0.0712512
0.0646241
0.0646241
0.0711938
0.0711938
0.0696047
0.0696047
0.0529893
0.0529893
0.0482916
0.0482916
0.0317484
0.0317484
0.0317484
0.0448493
0.0448493
0.0551034
0.0551034
0.0734539
0.0734539
0.0697378
0.0697378
0.071984
0.071984
0.0739972
0.0739972
0.0715596
0.0715596
0.0639137
0.0639137
0.0707166
0.0707166
0.073395
0.073395
0.0645804
0.0645804
0.0710034
0.0710034
0.0615146
0.0615146
0.0732629
0.0732629
0.0720411
0.0720411
0.0722706
0.0722706
0.07398
0.07398
0.0750923
0.0750923
0.0708454
0.0708454
0.0698888
0.0698888
0.0419487
0.0419487
0.0719871
0.0719871
0.0697209
0.0697209
0.0454064
0.0454064
0.072338
0.072338
0.0386504
0.0386504
0.0386504
0.0735338
0.0735338
0.0718146
0.0718146
0.0642305
0.0642305
0.0454524
0.0454524
0.0454524
0.0722301
0.0722301
0.0716098
0.0716098
0.073719
0.073719
0.0576938
0.0576938
0.0633055
0.0633055
0.0451508
0.0451508
0.0725893
0.0725893
0.073739
0.073739
0.0735975
0.0735975
0.0748944
0.0748944
0.0692147
0.0692147
0.0468547
0.0468547
0.0716745
0.0716745
0.0573435
0.0573435
0.0744455
0.0744455
0.0731242
0.0731242
0.0717507
0.0717507
0.0720291
0.0720291
0.066732
0.066732
0.0723597
0.0723597
0.0678663
0.0678663
0.0669596
0.0669596
0.0717213
0.0717213
0.0738982
0.0738982
0.071727
0.071727
0.071922
0.071922
0.0467114
0.0467114
0.0742573
0.0742573
0.0458062
0.0458062
0.0512965
0.0512965
0.0707548
0.0707548
0.069476
0.069476
0.0505841
0.0505841
0.0721232
0.0721232
0.0719042
0.0719042
0.0746336
0.0746336
0.0729598
0.0729598
0.0722979
0.0722979
0.0603037
0.0603037
0.0705754
0.0705754
0.0472176
0.0472176
0.0478145
0.0478145
0.0478145
0.072105
0.072105
0.0721682
0.0721682
0.0633371
0.0633371
0.073186
0.073186
0.0740619
0.0740619
0.0503723
0.0503723
0.0728071
0.0728071
0.0719192
0.0719192
0.068836
0.068836
0.0704397
0.0704397
0.0723094
0.0723094
0.0733278
0.0733278
0.0372314
0.0372314
0.0678987
0.0678987
0.0729654
0.0729654
0.0555955
0.0555955
0.0737745
0.0737745
0.073157
0.073157
0.0513506
0.0513506
0.0513506
0.0632061
0.0632061
0.0737704
0.0737704
0.0715058
0.0715058
0.0731725
0.0731725
0.0720984
0.0720984
0.0502236
0.0502236
0.0739312
0.0739312
0.0720822
0.0720822
0.0726566
0.0726566
0.0487822
0.0487822
0.0713342
0.0713342
0.0724282
0.0724282
0.0716923
0.0716923
0.0745433
0.0745433
0.0500339
0.0500339
0.0694569
0.0694569
0.0730136
0.0730136
0.0705262
0.0705262
0.0704055
0.0704055
0.0710563
0.0710563
0.0714076
0.0714076
0.0657648
0.0657648
0.0708057
0.0708057
0.0720166
0.0720166
0.0749946
0.0749946
0.0720792
0.0720792
0.0720897
0.0720897
0.0734855
0.0734855
0.073862
0.073862
0.0712787
0.0712787
0.0719281
0.0719281
0.0716368
0.0716368
0.0733956
0.0733956
0.0725858
0.0725858
0.0722237
0.0722237
0.0718021
0.0718021
0.0714482
0.0714482
0.0725899
0.0725899
0.0682558
0.0682558
0.0750991
0.0750991
0.0715744
0.0715744
0.071674
0.071674
0.0599549
0.0599549
0.0728026
0.0728026
0.0722159
0.0722159
0.0463709
0.0463709
0.0719884
0.0719884
0.0712501
0.0712501
0.072022
0.072022
0.0717152
0.0717152
0.0613384
0.0613384
0.0532118
0.0532118
0.0733284
0.0733284
0.0458776
0.0458776
0.0749341
0.0749341
0.0338547
0.0338547
0.0730429
0.0730429
0.072043
0.072043
0.0581991
0.0581991
0.0722159
0.0722159
0.0729369
0.0729369
0.0734887
0.0734887
0.0718392
0.0718392
0.0716953
0.0716953
0.0698301
0.0698301
0.071634
0.071634
0.0717547
0.0717547
0.0725822
0.0725822
0.072166
0.072166
0.0739174
0.0739174
0.0712891
0.0712891
0.0719883
0.0719883
0.0722146
0.0722146
0.071722
0.071722
0.0385079
0.0385079
0.072802
0.072802
0.0726646
0.0726646
0.0716444
0.0716444
0.0719908
0.0719908
0.072074
0.072074
0.0746165
0.0746165
0.0721583
0.0721583
0.0718102
0.0718102
0.0716751
0.0716751
0.0740572
0.0740572
0.0718759
0.0718759
0.0718441
0.0718441
0.0717118
0.0717118
0.0712591
0.0712591
0.053941
0.053941
0.071552
0.071552
0.0722156
0.0722156
0.0718503
0.0718503
0.0725703
0.0725703
0.0363441
0.0363441
0.0363441
0.0716715
0.0716715
0.0716164
0.0716164
0.0741281
0.0741281
0.0722384
0.0722384
0.0674123
0.0674123
0.0734469
0.0734469
0.0631334
0.0631334
0.0482539
0.0482539
0.0360101
0.0360101
0.0360101
0.0717301
0.0717301
0.0743562
0.0743562
0.07186
0.07186
0.0719838
0.0719838
0.0716594
0.0716594
0.0721189
0.0721189
0.0715033
0.0715033
0.0730991
0.0730991
0.0719769
0.0719769
0.0726126
0.0726126
0.0714413
0.0714413
0.0747377
0.0747377
0.0729108
0.0729108
0.0717417
0.0717417
0.0736672
0.0736672
0.0730446
0.0730446
0.0719289
0.0719289
0.0744788
0.0744788
0.0510694
0.0510694
0.0716159
0.0716159
0.073439
0.073439
0.0745898
0.0745898
0.0675202
0.0675202
0.0715488
0.0715488
0.0716624
0.0716624
0.0717385
0.0717385
0.0748801
0.0748801
0.0716776
0.0716776
0.0714172
0.0714172
0.0727021
0.0727021
0.0716615
0.0716615
0.073592
0.073592
0.0548138
0.0548138
0.0726036
0.0726036
0.0715947
0.0715947
0.0719196
0.0719196
0.0716302
0.0716302
0.07216
0.07216
0.0644765
0.0644765
0.0718646
0.0718646
0.0572563
0.0572563
0.0572563
0.0721044
0.0721044
0.0726505
0.0726505
0.0721866
0.0721866
0.0717495
0.0717495
0.0725035
0.0725035
0.0715079
0.0715079
0.072366
0.072366
0.0740449
0.0740449
0.0716212
0.0716212
0.0721974
0.0721974
0.073991
0.073991
0.0726019
0.0726019
0.0713668
0.0713668
0.0720097
0.0720097
0.0750226
0.0750226
0.0715376
0.0715376
0.0536258
0.0536258
0.0713554
0.0713554
0.0665027
0.0665027
0.0717526
0.0717526
0.0717573
0.0717573
0.0725135
0.0725135
0.0728137
0.0728137
0.0732882
0.0732882
0.0715836
0.0715836
0.071432
0.071432
0.0689923
0.0689923
0.0741321
0.0741321
0.071959
0.071959
0.0749847
0.0749847
0.0671991
0.0671991
0.0729506
0.0729506
0.0718579
0.0718579
0.0721264
0.0721264
0.0719952
0.0719952
0.0727827
0.0727827
0.0716391
0.0716391
0.0717579
0.0717579
0.0715055
0.0715055
0.0715686
0.0715686
0.0715861
0.0715861
0.0720625
0.0720625
0.0716087
0.0716087
0.0744726
0.0744726
0.0539404
0.0539404
0.0716054
0.0716054
0.0713883
0.0713883
0.0734754
0.0734754
0.0729882
0.0729882
0.0744406
0.0744406
0.0719139
0.0719139
0.0716591
0.0716591
0.0715799
0.0715799
0.0710059
0.0710059
0.0731248
0.0731248
0.0724916
0.0724916
0.0720003
0.0720003
0.0715209
0.0715209
0.0543624
0.0543624
0.071391
0.071391