/*--------------------------------*- C++ -*----------------------------------*\
  =========                 |
  \\      /  F ield         | OpenFOAM: The Open Source CFD Toolbox
   \\    /   O peration     | Website:  https://openfoam.org
    \\  /    A nd           | Version:  8
     \\/     M anipulation  |
\*---------------------------------------------------------------------------*/
FoamFile
{
    version     2.0;
    format      ascii;
    class       volScalarField;
    location    "0.15";
    object      nut;
}
// * * * * * * * * * * * * * * * * * * * * * * * * * * * * * * * * * * * * * //

dimensions      [0 2 -1 0 0 0 0];

internalField   nonuniform List<scalar> 
1924
(
0.00294472
0.00297248
0.00296198
0.00299698
0.00295064
0.00297159
0.0030025
0.00298893
0.0030058
0.00298217
0.00300779
0.00301702
0.00241363
0.00302141
0.00301085
0.0030077
0.00244005
0.00302795
0.00289482
0.00303068
0.00221104
0.00299421
0.0028862
0.00303389
0.00299234
0.00299291
0.00299541
0.00301618
0.00278063
0.0030048
0.00280308
0.0029924
0.00255551
0.0025623
0.00301661
0.00296255
0.00299509
0.00285556
0.00297455
0.00267142
0.00299489
0.00230189
0.00299313
0.00283115
0.00299609
0.0025001
0.00288686
0.00303469
0.00207612
0.00210752
0.00292668
0.0023099
0.00299456
0.00291285
0.00232125
0.00301917
0.00285797
0.00302299
0.00300773
0.00299218
0.0028857
0.00300743
0.00286607
0.00296845
0.00289337
0.003039
0.00299844
0.0029805
0.0025489
0.00289861
0.00241411
0.00300374
0.00295932
0.00301372
0.00301359
0.00257612
0.00304185
0.00302518
0.00303593
0.00290717
0.00305318
0.00299527
0.00298035
0.00221275
0.00282862
0.00298959
0.00302572
0.00301408
0.00207465
0.00231422
0.003
0.00299341
0.00237422
0.00245762
0.00229816
0.00283194
0.00304201
0.00304922
0.0029934
0.00251261
0.00282856
0.0022411
0.00299545
0.00299354
0.00251022
0.00304823
0.00264445
0.00261527
0.00299006
0.00240625
0.00304332
0.00256176
0.00296704
0.00300506
0.00303884
0.00217993
0.00287558
0.00300465
0.00298602
0.00304338
0.00280177
0.000866186
0.0021962
0.00223153
0.00299929
0.0026887
0.00258435
0.00302884
0.00247229
0.000914185
0.00304508
0.00270076
0.000280818
0.00300576
0.00229044
0.00254873
0.00281551
0.00261761
0.00303304
0.00298828
0.00303443
0.00300291
0.000237869
0.000220355
0.0028723
0.00284572
0.00268163
0.00246767
0.00298881
0.00298389
0.00291592
0.000436213
0.00255598
0.00273944
0.00291137
0.00275612
0.000859959
0.002859
0.0030431
0.000330515
0.00301205
0.00252065
0.00279326
0.000885162
0.00288331
0.00261168
0.00279423
0.000644794
0.00304513
0.00251542
0.00262924
0.00292399
0.00305258
0.00299247
0.00303358
0.00283822
0.00300478
0.000541058
0.00297756
0.00284048
0.00295418
0.00300478
0.00303056
0.00285373
0.00205026
0.00294007
0.00260022
0.00298488
0.00304833
0.00302099
0.00276615
0.00295265
0.00304367
0.00288431
0.00289534
0.000445852
0.00299959
0.00288483
0.0029071
0.00289498
0.000527675
0.0029937
0.00266356
0.00297081
0.00281372
0.00297415
0.00292835
0.00248181
0.00241784
0.00017222
0.000905171
0.00258244
0.00302781
0.00293614
0.00299434
0.00304144
0.00298719
0.00281314
0.00295639
0.00302838
0.00282246
0.00297934
0.00273708
0.00302387
0.00299078
0.00300227
0.00303894
0.0030627
0.00296326
0.00293588
0.000375416
0.00299665
0.00293849
0.000485478
0.00300408
0.000193529
0.00302937
0.00298502
0.00279996
0.000455512
0.00300169
0.00298476
0.00303318
0.0026033
0.000459349
0.00233297
0.00300484
0.00303491
0.00303244
0.00305977
0.00294803
0.000791801
0.00298459
0.00263321
0.00305014
0.00302084
0.00299155
0.00299663
0.00287041
0.00299916
0.00289386
0.00286562
0.00299084
0.00303915
0.0029911
0.00299542
0.00244545
0.00304801
0.0023965
0.000557671
0.0029589
0.00294562
0.002494
0.00299964
0.00299482
0.00305229
0.00301431
0.0030035
0.00270232
0.00295724
0.000604025
0.000332663
0.00299922
0.0029973
0.00282096
0.00302328
0.00304098
0.000800218
0.00301179
0.00299316
0.00291119
0.00296222
0.0030038
0.00302495
0.00213255
0.00291115
0.00301753
0.0025176
0.0030371
0.00302143
0.000463195
0.00277069
0.00303414
0.00298601
0.00302047
0.00299937
0.0025432
0.00303749
0.00299852
0.00301374
0.00238125
0.00298247
0.00300464
0.0029905
0.00305139
0.00252276
0.0029315
0.00301721
0.0029538
0.00295369
0.00297619
0.00297808
0.00283271
0.0029723
0.00299756
0.00305984
0.00299741
0.00299915
0.00302887
0.00303618
0.00297579
0.00299528
0.00298924
0.00302594
0.00301086
0.00300199
0.00299258
0.00297722
0.00300897
0.00289447
0.00306219
0.00298927
0.00298998
0.00263046
0.003014
0.00300143
0.000365356
0.00299656
0.0029805
0.00299773
0.00299079
0.000425215
0.000595909
0.00302488
0.00232586
0.00306141
0.00205891
0.00301895
0.0029981
0.00268576
0.00300178
0.00301673
0.00302821
0.00299337
0.00299033
0.00293409
0.00298904
0.00298857
0.00300936
0.00299643
0.00303712
0.0029758
0.00299706
0.00300134
0.00299087
0.000505787
0.00301391
0.00301108
0.00298921
0.00299658
0.00299835
0.00305587
0.00299994
0.00298885
0.00298636
0.00304006
0.00299502
0.00299346
0.00299065
0.00297127
0.000528104
0.00298723
0.00300149
0.00299357
0.00300716
0.000167291
0.00298975
0.00298857
0.00304193
0.00300188
0.00289796
0.00303066
0.00272766
0.002468
0.000209159
0.00299098
0.00304644
0.00299377
0.00299698
0.00298947
0.00299965
0.00298612
0.00302043
0.00298993
0.00301018
0.00298457
0.00305424
0.00301612
0.00299186
0.00303277
0.0030189
0.00299427
0.00304899
0.00242244
0.00298851
0.0030271
0.00305232
0.00289765
0.00298707
0.00298951
0.00299115
0.0030572
0.00298985
0.00298418
0.00301137
0.0029895
0.00303028
0.00265696
0.00300731
0.00298802
0.00299352
0.00298879
0.00299826
0.0028367
0.00299384
0.000201695
0.00299928
0.00301306
0.00300114
0.00299138
0.00300758
0.00298614
0.00300367
0.00304034
0.00298859
0.00300143
0.00303859
0.00300962
0.00298304
0.00299694
0.0030607
0.00298676
0.00257507
0.00298281
0.00282547
0.00299144
0.00299153
0.00300814
0.00301291
0.0030264
0.00298775
0.00298444
0.0029317
0.00304155
0.00299607
0.00306087
0.00288984
0.00301746
0.00299368
0.00299945
0.00299687
0.00301355
0.00298896
0.00299153
0.00298602
0.0029874
0.00298779
0.00299808
0.00298829
0.00304936
0.00263451
0.00298822
0.00298345
0.00302823
0.00301765
0.003048
0.00299487
0.0029894
0.00298765
0.00297589
0.00302049
0.00300729
0.00299642
0.00298635
0.00251439
0.00298347
0.00301101
0.00298695
0.00298454
0.00302846
0.00304909
0.00305081
0.00298946
0.00300567
0.00298958
0.00298959
0.00298578
0.00299999
0.00301534
0.00299733
0.0029817
0.00300879
0.00305467
0.00303167
0.00300719
0.00299982
0.00295455
0.00296169
0.00298671
0.00300781
0.0029812
0.00301747
0.00298366
0.00299098
0.0028934
0.00298945
0.00301232
0.00299593
0.00266943
0.00298582
0.00298449
0.0029853
0.00296548
0.00303987
0.00303939
0.00298674
0.00287279
0.00294928
0.00299124
0.00304356
0.00298665
0.00298757
0.00299941
0.00298207
0.0029861
0.00299039
0.00298034
0.00295549
0.00295502
0.00286284
0.0029854
0.00298071
0.00259169
0.00298763
0.00299742
0.00299338
0.00305641
0.00302955
0.00289658
0.00298375
0.00304234
0.0029871
0.00298593
0.00298783
0.00298966
0.00298786
0.00298729
0.00263664
0.00301893
0.00298769
0.00298429
0.00299347
0.0030168
0.00298785
0.00289884
0.00297223
0.00301218
0.00297893
0.00304657
0.0029908
0.00298519
0.00298117
0.00062473
0.00292827
0.00296617
0.00302191
0.00298783
0.00305751
0.00298937
0.00298013
0.0026537
0.00300981
0.00300507
0.00288327
0.00298232
0.00301387
0.00299791
0.00304904
0.00299333
0.00297695
0.00298488
0.00300349
0.00298953
0.00305052
0.0029837
0.002991
0.00300599
0.0029443
0.00279289
0.00295928
0.00302936
0.0030485
0.00302214
0.00298395
0.00301234
0.00291885
0.00298521
0.00299185
0.00299767
0.00298771
0.00299536
0.00298518
0.00305945
0.00297971
0.00298148
0.00271161
0.00298505
0.00287869
0.00298559
0.00303233
0.00298607
0.00298625
0.00298242
0.00298445
0.00298219
0.00300447
0.00298349
0.00299729
0.00298566
0.0029965
0.00297935
0.00298629
0.00294522
0.00300606
0.00298712
0.00298638
0.00297879
0.00304669
0.00298424
0.00298614
0.00299034
0.00297927
0.00295117
0.00303657
0.00298639
0.00285524
0.00298346
0.00299367
0.00297982
0.00298168
0.00298237
0.00304268
0.00266281
0.00304749
0.00300264
0.00303822
0.00301468
0.00299688
0.00296297
0.00298648
0.00301349
0.00301089
0.00298894
0.00298757
0.00298311
0.00300943
0.00298632
0.0029089
0.00301996
0.00298277
0.0029987
0.00300363
0.00302729
0.00298365
0.00297817
0.00300528
0.00298558
0.00302352
0.00298174
0.00298216
0.00303184
0.00297796
0.00298411
0.00274377
0.00290766
0.0029842
0.00298483
0.00298348
0.00302259
0.00298014
0.00297867
0.00297092
0.00298487
0.00292445
0.00298285
0.00299593
0.002985
0.00297754
0.0030033
0.00273819
0.0030017
0.00299059
0.00304228
0.00298408
0.00299525
0.000463954
0.000258666
0.00273335
0.0029746
0.0030257
0.00298503
0.00298355
0.00295418
0.00298164
0.00298745
0.0029826
0.00298626
0.0029845
0.00298871
0.0029771
0.00293123
0.00298507
0.00303175
0.000445582
0.00302249
0.000560289
0.00298031
0.00298404
0.00297904
0.00302653
0.0029818
0.00298119
0.0030147
0.00287675
0.00294246
0.00300381
0.00272528
0.00280504
0.00290934
0.00298933
0.00277397
0.00298507
0.00299423
0.00301704
0.00298138
0.00298252
0.00298216
0.00298033
0.00297801
0.00298277
0.00299202
0.00298265
0.00296434
0.0029837
0.00284523
0.00301179
0.00297928
0.00298197
0.00298015
0.00298353
0.00297637
0.00302404
0.00300857
0.00266191
0.00302973
0.00279996
0.00299637
0.00298312
0.00300409
0.00297907
0.00298176
0.00297509
0.0030063
0.00298374
0.00298019
0.00301625
0.00301398
0.00283339
0.00298319
0.00297568
0.00267623
0.00298809
0.00298131
0.00271573
0.00301193
0.00299884
0.00284427
0.0029907
0.00298385
0.00297938
0.00285587
0.00301575
0.00297782
0.000483106
0.00297613
0.00298037
0.00298731
0.0029597
0.00298098
0.00298717
0.00297433
0.00300341
0.00299945
0.00296755
0.00298493
0.00301525
0.00297933
0.00298591
0.00298388
0.00298031
0.00299318
0.00299394
0.00297644
0.0029814
0.00297991
0.00298125
0.00301784
0.00298625
0.00299995
0.000187585
0.00302985
0.000545737
0.00298177
0.00298072
0.00220273
0.00297224
0.00298186
0.00297912
0.0029883
0.00297288
0.00301101
0.00298387
0.00297439
0.00300784
0.00299192
0.00298243
0.00297189
0.00297657
0.00290047
0.00294565
0.00298572
0.00299781
0.00298248
0.0027038
0.00297337
0.00298264
0.00292552
0.00298045
0.00297648
0.00297936
0.00299673
0.00297333
0.00297144
0.00300492
0.00297655
0.00266601
0.00299058
0.00297489
0.000528325
0.00298212
0.00270483
0.00297363
0.0029873
0.0027263
0.00298005
0.00297949
0.00298269
0.00303188
0.00298383
0.00298482
0.00297638
0.00296596
0.000541414
0.00299334
0.0030047
0.0030065
0.00300744
0.00298939
0.00297123
0.00299387
0.0029773
0.00276311
0.00297381
0.00271898
0.00298005
0.00297877
0.00300011
0.00295503
0.00298059
0.00299831
0.00298048
0.00265272
0.00300568
0.000225161
0.00279526
0.00298277
0.00296354
0.00297983
0.00297385
0.00296381
0.00283526
0.00299274
0.00297606
0.00294411
0.0029844
0.00297742
0.00296463
0.00300092
0.00301091
0.00298087
0.00297373
0.00298832
0.00297897
0.00296368
0.00298144
0.00290014
0.00298523
0.00296415
0.00298094
0.00298277
0.00293682
0.00034091
0.0029762
0.00286598
0.000572246
0.00298126
0.00297345
0.00298151
0.00297129
0.00299032
0.00296331
0.00297829
0.000271112
0.00296442
0.00298427
0.000285052
0.00296993
0.000237258
0.00297358
0.00298612
0.00294573
0.00292685
0.00296449
0.00302231
0.00289253
0.00298164
0.0029946
0.0029756
0.00297932
0.00291971
0.00291804
0.00296434
0.0029398
0.00297913
0.00299312
0.00264046
0.00297914
0.00297967
0.00298344
0.0026833
0.00298929
0.00297975
0.00296236
0.00296403
0.00297836
0.00298252
0.00297303
0.00283411
0.0026927
0.00295455
0.00299274
0.00298167
0.00292513
0.00296357
0.00295472
0.00291106
0.00295404
0.00298378
0.00298407
0.00297479
0.00297771
0.0029511
0.00295408
0.00298495
0.00295472
0.00295845
0.00299084
0.00303724
0.0030007
0.00286219
0.00296297
0.00296027
0.00298702
0.00298027
0.00299837
0.00297429
0.00298034
0.00297998
0.00295464
0.00297504
0.00299856
0.00299083
0.00300003
0.000286674
0.00287931
0.00288602
0.0029805
0.00295439
0.00298152
0.00302117
0.00298716
0.00281168
0.00295369
0.0029593
0.00298304
0.0027046
0.00278625
0.00295398
0.00303716
0.00297306
0.0029725
0.00296038
0.00298995
0.00301691
0.00298218
0.00298582
0.00297768
0.00288135
0.00297856
0.00297839
0.00298054
0.00295341
0.00299493
0.0029687
0.00296225
0.00305636
0.00302736
0.00297705
0.00299354
0.00298123
0.00292245
0.00297884
0.00295236
0.0029221
0.00262428
0.00297098
0.00285664
0.00299093
0.00297442
0.00287424
0.00288611
0.00298778
0.00291511
0.0029527
0.00292135
0.00297892
0.00298046
0.000570039
0.00298233
0.00292045
0.00297183
0.000562915
0.00297938
0.00291939
0.00269662
0.00295427
0.0029227
0.00282469
0.00297921
0.00298661
0.00297811
0.0029182
0.00298158
0.00057253
0.000555696
0.00296146
0.00297942
0.00299015
0.00305661
0.0029802
0.00294791
0.00289049
0.00291692
0.00292378
0.000598919
0.00297697
0.00250995
0.00292232
0.00297762
0.00298104
0.00297634
0.00295733
0.00298034
0.000188892
0.000206792
0.00302327
0.00296608
0.00295191
0.00299514
0.00288991
0.00297374
0.00297778
0.00294882
0.00298302
0.00299302
0.00297096
0.00275143
0.00297938
0.00288923
0.000602616
0.00280261
0.00297962
0.00297954
0.00298817
0.00288839
0.00289125
0.00297112
0.0029515
0.00284493
0.00277941
0.00288738
0.00298028
0.000240086
0.00269335
0.00291996
0.00291559
0.000710622
0.00296067
0.00288623
0.000551399
0.000468595
0.00297914
0.00281928
0.00298712
0.00297877
0.00298996
0.00299454
0.00296514
0.00297865
0.00297258
0.00297829
0.00297803
0.000256326
0.000669978
0.00295098
0.00053962
0.00288118
0.00297833
0.00273347
0.00288499
0.00299342
0.00289184
0.00289265
0.00291124
0.00301914
0.00297896
0.0029783
0.00267839
0.0030261
0.00297842
0.00297766
0.00289105
0.00298357
0.00289333
0.00297723
0.00278772
0.000568418
0.00291427
0.00297622
0.00297302
0.000646131
0.00278543
0.0029756
0.00260917
0.000534624
0.00296954
0.00281434
0.00297037
0.00278312
0.00291388
0.00297683
0.00298807
0.00297807
0.00279027
0.0029777
0.00278073
0.00295987
0.00290023
0.00271685
0.00296892
0.00277832
0.00298967
0.00294379
0.00298084
0.00269858
0.00286628
0.00296987
0.00288371
0.00297167
0.000209426
0.000211286
0.00297685
0.00295005
0.00277595
0.00295928
0.00298714
0.00295198
0.00288754
0.00251388
0.00065984
0.00295345
0.00291312
0.002977
0.00298876
0.00296046
0.00295942
0.00296079
0.00279484
0.00297591
0.00269119
0.0029907
0.00296953
0.0029767
0.00277418
0.00268502
0.00298373
0.00277369
0.00297724
0.00268956
0.000259576
0.00297727
0.00268803
0.00296121
0.00268643
0.00296834
0.000556607
0.00284435
0.00280879
0.000756149
0.00297701
0.00296896
0.00268473
0.000249956
0.00283954
0.00288231
0.00289282
0.00279376
0.00268299
0.00269387
0.00299039
0.00297228
0.0027833
0.00287593
0.00279049
0.00262576
0.00295908
0.00298111
0.00296961
0.00279988
0.00290526
0.00274157
0.00296766
0.00292368
0.000567472
0.00296087
0.000644301
0.00297484
0.00297003
0.00297568
0.00294915
0.00292726
0.00268124
0.00296023
0.0028316
0.00297494
0.00287473
0.00292363
0.00296096
0.00297618
0.00277162
0.000265804
0.00297547
0.00291209
0.0027994
0.00298757
0.0029261
0.00261429
0.00295959
0.000269518
0.00270243
0.00292305
0.00305258
0.000278133
0.00281251
0.002881
0.00295845
0.00303348
0.00278446
0.0029006
0.00297394
0.000455212
0.00289536
0.0029258
0.0028986
0.00267954
0.0029762
0.000262518
0.00289453
0.00297232
0.00269766
0.00296692
0.00298662
0.00270005
0.00297597
0.00297606
0.0029345
0.00287202
0.00293212
0.00298331
0.000303075
0.000329436
0.00294411
0.00270855
0.00279586
0.000243949
0.00297467
0.00289797
0.000547815
0.00295889
0.00276999
0.00289464
0.00298989
0.000495764
0.000290554
0.00278761
0.00292251
0.000622488
0.000218596
0.000237001
0.0027678
0.0028801
0.00270076
0.00267796
0.00295832
0.00296975
0.00296883
0.00292566
0.00296082
0.00297294
0.000279848
0.00297506
0.00024818
0.000260219
0.00298079
0.00289406
0.00278155
0.000271941
0.00297153
0.00269528
0.00294828
0.000581372
0.00276588
0.000579093
0.00296611
0.000567035
0.00288056
0.00265354
0.000576982
0.00298679
0.00061683
0.00289777
0.00291117
0.000551593
0.000574974
0.00278849
0.000573122
0.00280231
0.000503331
0.000571515
0.00267766
0.00278519
0.00270129
0.00272165
0.000415255
0.00027357
0.000570194
0.00297466
0.00286385
0.00295811
0.00297406
0.00278702
0.00287983
0.00277837
0.00296526
0.00299278
0.00297366
0.000585332
0.00278153
0.00258166
0.00292543
0.00289901
0.0029749
0.00288728
0.00278155
0.000239098
0.00274911
0.000569185
0.00298903
0.00298474
0.00297193
0.0027687
0.00289751
0.00268458
0.00278967
0.00295728
0.000291085
0.00284596
0.0029215
0.00270642
0.000562438
0.00257446
0.00270216
0.00277669
0.0028933
0.00296438
0.000585925
0.00297341
0.00295756
0.000584195
0.00292511
0.00298567
0.000617576
0.00270494
0.00296053
0.00295983
0.000568505
0.00269401
0.00297073
0.00294743
0.00058318
0.00297254
0.00267593
0.00269827
0.0029564
0.000261128
0.00297307
0.0024829
0.00296803
0.00298224
0.00297089
0.00269217
0.00279706
0.00296865
0.00268054
0.00297967
0.00264801
0.00289713
0.00029231
0.000593513
0.000570481
0.000294133
0.00291037
0.000608035
0.00297059
0.00279058
0.00266673
0.00056673
0.000235347
0.00274018
0.00296348
0.00297112
0.00298599
0.00277293
0.00287426
0.00291339
0.000582408
0.0029247
0.00266642
0.00296244
0.00296948
0.0027025
0.00296939
0.00287879
0.00275119
0.0026232
0.00056823
0.0029555
0.00296702
0.00269572
0.00295676
0.00260764
0.000238897
0.00277483
0.00054656
0.000239788
0.00292421
0.000240727
0.00295453
0.0029193
0.000241469
0.00289665
0.000572001
0.000241987
0.00296054
0.00274158
0.000581238
0.000242303
0.000242454
0.0029466
0.00299052
0.0029531
0.0028914
0.00276774
0.00296553
0.00269079
0.002968
0.000248735
0.000249511
0.000242451
0.00290966
0.00279134
0.00292366
0.000564015
0.00296456
0.000595493
0.000574111
0.00295552
0.00292292
0.000566601
0.000575061
0.00282481
0.0025411
0.000242302
0.000563205
0.00289608
0.000232424
0.00262888
0.00295463
0.00292131
0.00288578
0.00294556
0.000238188
0.000237541
0.00270263
0.00289545
0.000236912
0.00295755
0.000568201
0.00294927
0.00267446
0.000282084
0.000232518
0.000248355
0.000573182
0.00282874
0.00255542
0.00296654
0.00289351
0.00289472
0.00298427
0.00266887
0.00290896
0.00298057
0.00295163
0.00023636
0.00297808
0.00276542
0.00287788
0.000547027
0.00295924
0.000242015
0.00297777
0.00294526
0.000256801
0.000540506
0.00291775
0.00294306
0.00291574
0.00279307
0.000249564
0.00279286
0.000272151
0.000565653
0.000553542
0.00289001
0.00296336
0.00291545
0.00290786
0.0029674
0.0027925
0.000562619
0.00287702
0.000284505
0.000266584
0.00245931
0.000235565
0.00279197
0.000556092
0.00293567
0.00298023
0.00276709
0.00288735
0.00279246
0.00277129
0.00249567
0.00297503
0.000241593
0.000233803
0.00293334
0.000251681
0.000229983
0.00295898
0.0027016
0.00270211
0.000260465
0.00290417
0.000248718
0.000574336
0.00295393
0.00298078
0.000254002
0.000560524
0.00287601
0.000252068
0.00298535
0.0027885
0.000251182
0.00289542
0.00268823
0.00287723
0.000547377
0.00276667
0.00297041
0.000220886
0.000224245
0.00294893
0.00245905
0.00270263
0.00295175
0.00288623
0.00295286
0.0026994
0.00270234
0.00025169
0.00291222
0.00290987
0.00287364
0.00295732
0.00288899
0.00268304
0.000576429
0.000258309
0.00277152
0.0029724
0.00277198
0.00263329
0.00273931
0.000579049
0.000247678
0.00290256
0.00276531
0.000580299
0.00294185
0.000568368
0.000241034
0.00269007
0.00283333
0.00286444
0.00276641
0.000237782
0.000243429
0.00267329
0.000566298
0.000577834
0.000581436
0.00271313
0.00269846
0.00282905
0.00289249
0.0027659
0.000531786
0.000243238
0.00288109
0.00265566
0.00287073
0.000561624
0.000251625
0.00287265
0.00293257
0.00270251
0.00288576
0.00267163
0.00275677
0.00292776
0.000581653
0.000245446
0.00276321
0.000535603
0.00267236
0.000240815
0.00267972
0.000242361
0.000575497
0.000246509
0.00287263
0.000229435
0.00286182
0.000571502
0.00275052
0.00268246
0.000239177
0.000577584
0.00270202
0.00056925
0.00056995
0.000238598
0.00275682
0.000227343
0.00274604
0.000237304
0.00254509
0.00284512
0.00264339
0.000245984
0.000250762
0.000560746
0.000559698
0.00057666
0.000573347
0.000243834
0.000234589
0.00269168
0.00273279
0.00281594
0.00267091
0.000244596
0.000228325
0.000554978
0.00253858
0.00271241
0.00266384
0.00266924
0.00267352
0.00280578
0.00266237
0.000239791
0.00056548
0.0026348
0.000249839
0.000554029
0.000236508
0.000545568
0.00252417
0.00259317
0.000227019
0.000465097
0.000206063
0.000201728
0.000488357
0.000225988
0.000236285
0.000571701
0.000245223
0.000570806
0.000237521
0.000239537
0.000571993
0.000234786
0.000240347
0.000568719
0.000557213
0.000245662
0.000251305
0.0002421
0.000556066
0.000248117
0.000558461
0.000224938
0.000200282
0.000201764
0.00054898
0.000227378
0.000232575
0.000568833
0.000249759
0.00250464
0.00303564
0.00262751
0.00266149
0.00264663
0.000560665
0.000221967
0.00295312
0.00287077
0.00281366
0.000198453
0.00253212
0.00298903
0.00273396
0.0025377
0.000541225
0.000496008
0.00304201
0.00287665
0.000257726
0.00019784
0.000264129
0.00298704
0.00206054
0.00296704
0.00299417
0.000277701
0.00274161
0.00282902
0.00295792
0.000158323
0.000160944
0.000269376
0.000237621
0.000304326
0.000228732
0.000259988
0.000248331
0.00295313
0.000553049
0.00283755
0.000210092
0.000170216
0.000166652
0.000573209
0.0028855
0.00298589
0.000231564
0.000200254
0.000205186
0.00289994
0.00294685
0.000442165
0.00271554
0.00304459
0.00273253
0.00216019
0.00051238
0.000231204
0.000690853
0.000471287
0.000718453
0.000513974
0.000462479
0.000490975
0.000185645
0.000185341
0.0029227
0.00293413
0.00249077
0.00304943
0.000267627
0.000448006
0.000446573
0.00243311
0.00246062
0.000466497
0.00296398
0.00244726
0.00246555
0.00277535
0.000211699
0.00226361
0.0026505
0.0025225
0.000470556
0.00304611
0.00255523
0.00298231
0.000197369
0.00253164
0.00304076
0.00250354
0.000399463
0.000209552
0.00277616
0.00299109
0.00303525
0.00206372
0.00233885
0.000205509
0.00299494
0.00304627
0.00225209
0.0030437
0.00299474
0.000465874
0.00299353
0.00304291
0.00271419
0.00298939
0.00281552
0.00260978
0.00261676
0.000144891
0.00299134
0.000413072
0.000199612
0.00303848
)
;

boundaryField
{
    patch0
    {
        type            nutkWallFunction;
        Cmu             0.09;
        kappa           0.41;
        E               9.8;
        value           nonuniform List<scalar> 
4010
(
0.000265182
0.000265182
0.000266555
0.000266555
0.000335498
0.000335498
0.000328756
0.000328756
0.000335124
0.000335124
0.000338179
0.000338179
0.000340772
0.000340772
0.000339617
0.000339617
0.000341001
0.000341001
0.000338165
0.000338165
0.000341391
0.000341391
0.000342276
0.000342276
0.000240454
0.000240454
0.000342728
0.000342728
0.000341484
0.000341484
0.000341169
0.000341169
0.000277212
0.000277212
0.000343303
0.000343303
0.000259259
0.000259259
0.000343545
0.000343545
0.000206535
0.000206535
0.000339761
0.000339761
0.000331621
0.000331621
0.000343852
0.000343852
0.000339588
0.000339588
0.00033966
0.00033966
0.0003399
0.0003399
0.000270644
0.000270644
0.00031907
0.00031907
0.000269001
0.000269001
0.000324553
0.000324553
0.000339598
0.000339598
0.000296966
0.000296966
0.000299164
0.000299164
0.000340891
0.000340891
0.000337371
0.000337371
0.000339857
0.000339857
0.000326121
0.000326121
0.000266693
0.000266693
0.000312354
0.000312354
0.000339843
0.000339843
0.000214921
0.000214921
0.000339677
0.000339677
0.000325726
0.000325726
0.000267963
0.000267963
0.00028858
0.00028858
0.000257911
0.000257911
0.000271212
0.000271212
0.000193541
0.000193541
0.000229517
0.000229517
0.000332449
0.000332449
0.000218188
0.000218188
0.000339791
0.000339791
0.000330876
0.000330876
0.000267958
0.000267958
0.000341564
0.000341564
0.000255661
0.000255661
0.000270194
0.000270194
0.000268839
0.000268839
0.0003396
0.0003396
0.000330692
0.000330692
0.000341137
0.000341137
0.000327437
0.000327437
0.000266246
0.000266246
0.000329115
0.000329115
0.000271578
0.000271578
0.000340231
0.000340231
0.000338871
0.000338871
0.000295234
0.000295234
0.000329952
0.000329952
0.000279139
0.000279139
0.00034077
0.00034077
0.000265522
0.000265522
0.000269672
0.000269672
0.000269656
0.000269656
0.000294492
0.000294492
0.000271902
0.000271902
0.000270528
0.000270528
0.000271334
0.000271334
0.000331369
0.000331369
0.000345819
0.000345819
0.000339892
0.000339892
0.000266816
0.000266816
0.000211527
0.000211527
0.000321457
0.000321457
0.000339441
0.000339441
0.000270434
0.000270434
0.000341803
0.000341803
0.000195661
0.000195661
0.000270425
0.000270425
0.000340384
0.000340384
0.000339712
0.000339712
0.000275519
0.000275519
0.000284293
0.000284293
0.000229096
0.000229096
0.000322916
0.000322916
0.000272345
0.000272345
0.000345021
0.000345021
0.000339719
0.000339719
0.00028931
0.00028931
0.000324345
0.000324345
0.000214163
0.000214163
0.00033992
0.00033992
0.000339728
0.000339728
0.000290376
0.000290376
0.000272841
0.000272841
0.000306838
0.000306838
0.000300598
0.000300598
0.000339394
0.000339394
0.000279902
0.000279902
0.000273479
0.000273479
0.000297429
0.000297429
0.000336775
0.000336775
0.000268928
0.000268928
0.000271578
0.000271578
0.000253591
0.000253591
0.000327735
0.000327735
0.000340867
0.000340867
0.000338962
0.000338962
0.000271946
0.000271946
0.000303156
0.000303156
8.64431e-05
8.64431e-05
0.000205161
0.000205161
0.000256796
0.000256796
0.00034032
0.00034032
0.000309993
0.000309993
0.000297488
0.000297488
0.000270796
0.000270796
0.000287983
0.000287983
9.09573e-05
9.09573e-05
0.000274574
0.000274574
0.000312742
0.000312742
2.94554e-05
2.94554e-05
0.00026893
0.00026893
0.000218748
0.000218748
0.000295742
0.000295742
0.000322274
0.000322274
0.00030356
0.00030356
0.000343756
0.000343756
0.000338705
0.000338705
0.000271527
0.000271527
0.000340682
0.000340682
2.64838e-05
2.64838e-05
2.64838e-05
2.4136e-05
2.4136e-05
2.4136e-05
0.000328778
0.000328778
0.000256074
0.000256074
0.000307766
0.000307766
0.000286703
0.000286703
0.000339272
0.000339272
0.000338762
0.000338762
0.000261527
0.000261527
4.63056e-05
4.63056e-05
4.63056e-05
0.000295452
0.000295452
0.000316836
0.000316836
0.000332855
0.000332855
0.000317064
0.000317064
8.58644e-05
8.58644e-05
0.000326293
0.000326293
0.00034395
0.00034395
3.59517e-05
3.59517e-05
0.000269512
0.000269512
0.000286444
0.000286444
0.000322162
0.000322162
8.81754e-05
8.81754e-05
0.000258935
0.000258935
0.000302716
0.000302716
0.000321475
0.000321475
6.60601e-05
6.60601e-05
0.000272195
0.000272195
0.000293203
0.000293203
0.000305195
0.000305195
0.000334214
0.000334214
0.00034545
0.00034545
0.000339625
0.000339625
0.00032568
0.00032568
0.00032587
0.00032587
0.00026899
0.00026899
6.55963e-05
6.55963e-05
0.0003385
0.0003385
0.000326787
0.000326787
0.000336541
0.000336541
0.000340883
0.000340883
0.00027094
0.00027094
0.000327305
0.000327305
0.000191232
0.000191232
0.000262844
0.000262844
0.000301669
0.000301669
0.000339262
0.000339262
0.000280889
0.000280889
0.000270203
0.000270203
0.000316689
0.000316689
0.000336775
0.000336775
0.000288728
0.000288728
0.000330849
0.000330849
0.00033139
0.00033139
4.7245e-05
4.7245e-05
4.7245e-05
0.000340477
0.000340477
0.000330189
0.000330189
0.000332102
0.000332102
0.000332258
0.000332258
6.45021e-05
6.45021e-05
0.000267566
0.000267566
0.000308673
0.000308673
0.00033844
0.00033844
0.000323364
0.000323364
0.000338315
0.000338315
0.000334817
0.000334817
0.000291638
0.000291638
0.00028011
0.00028011
1.6295e-05
1.6295e-05
1.6295e-05
9.00142e-05
9.00142e-05
0.000300609
0.000300609
0.000343217
0.000343217
0.000335111
0.000335111
0.000340038
0.000340038
0.000271758
0.000271758
0.000339114
0.000339114
0.000321914
0.000321914
0.000337269
0.000337269
0.000270741
0.000270741
0.000323458
0.000323458
0.000266672
0.000266672
0.000316285
0.000316285
0.000342805
0.000342805
0.000340162
0.000340162
0.000340661
0.000340661
0.000294493
0.000294493
0.000346717
0.000346717
0.000337552
0.000337552
0.000335444
0.000335444
4.36893e-05
4.36893e-05
0.000340045
0.000340045
0.000335074
0.000335074
5.81741e-05
5.81741e-05
0.000340807
0.000340807
2.19552e-05
2.19552e-05
2.19552e-05
0.000343388
0.000343388
0.00033967
0.00033967
0.000322649
0.000322649
4.81938e-05
4.81938e-05
4.81938e-05
0.000340573
0.000340573
0.000339223
0.000339223
0.000343786
0.000343786
0.000305541
0.000305541
4.84982e-05
4.84982e-05
0.000263303
0.000263303
0.000341351
0.000341351
0.000276343
0.000276343
0.000271081
0.000271081
0.000346297
0.000346297
0.000263583
0.000263583
7.97312e-05
7.97312e-05
0.000339364
0.000339364
0.000306201
0.000306201
0.000312487
0.000312487
0.000342507
0.000342507
0.00033953
0.00033953
0.000340136
0.000340136
0.00032838
0.00032838
0.000340854
0.000340854
0.000330939
0.000330939
0.000328895
0.000328895
0.000339466
0.000339466
0.000271587
0.000271587
0.000339479
0.000339479
0.000268243
0.000268243
0.000239364
0.000239364
0.000275474
0.000275474
0.000275989
0.000275989
5.75779e-05
5.75779e-05
0.000337353
0.000337353
0.000264035
0.000264035
0.000287576
0.000287576
0.000340341
0.000340341
0.000339865
0.000339865
0.000345742
0.000345742
0.000342152
0.000342152
0.00034072
0.00034072
0.000313398
0.000313398
0.000336959
0.000336959
7.2484e-05
7.2484e-05
3.62036e-05
3.62036e-05
3.62036e-05
0.000340301
0.000340301
0.000340438
0.000340438
0.000255141
0.000255141
0.000270387
0.000270387
0.000344518
0.000344518
8.05487e-05
8.05487e-05
0.000341822
0.000341822
0.000339897
0.000339897
0.000333109
0.000333109
0.000265703
0.000265703
0.000340745
0.000340745
0.000342945
0.000342945
0.000250563
0.000250563
0.000261279
0.000261279
0.000342164
0.000342164
0.000290166
0.000290166
0.000271459
0.000271459
0.000342577
0.000342577
4.89831e-05
4.89831e-05
4.89831e-05
0.000320266
0.000320266
0.000343896
0.000343896
0.000338997
0.000338997
0.000342611
0.000342611
0.000340287
0.000340287
0.000260518
0.000260518
0.000344241
0.000344241
0.000340252
0.000340252
0.000269492
0.000269492
0.000249414
0.000249414
0.000338622
0.000338622
0.000341002
0.000341002
0.000339403
0.000339403
0.000341333
0.000341333
0.00028296
0.00028296
0.000334489
0.000334489
0.000342268
0.000342268
0.000336851
0.000336851
0.000336585
0.000336585
0.000266763
0.000266763
0.000338782
0.000338782
0.000326178
0.000326178
0.000266333