/*--------------------------------*- C++ -*----------------------------------*\
  =========                 |
  \\      /  F ield         | OpenFOAM: The Open Source CFD Toolbox
   \\    /   O peration     | Website:  https://openfoam.org
    \\  /    A nd           | Version:  8
     \\/     M anipulation  |
\*---------------------------------------------------------------------------*/
FoamFile
{
    version     2.0;
    format      ascii;
    class       volScalarField;
    location    "0.15";
    object      p;
}
// * * * * * * * * * * * * * * * * * * * * * * * * * * * * * * * * * * * * * //

dimensions      [1 -1 -2 0 0 0 0];

internalField   nonuniform List<scalar> 
1924
(
0
10.7553
4.38016
4.48372
4.53549
4.29096
4.21624
4.14964
4.16155
4.15702
4.07675
4.10317
2.62378
4.13142
3.85103
3.78193
4.28355
4.11273
-34.1353
4.14202
0.547826
5.05844
4.70659
4.12903
4.96112
4.54185
4.53948
-4.10201
4.55213
716.758
4.97557
4.8598
3.09363
4.13645
4.83545
5.09429
4.87246
4.51641
758.45
4.99049
4.76348
-0.43957
4.65667
4.3482
367.462
4.82215
-334.715
201.627
35.0196
3.85359
4.66468
0.316628
5.13949
4.52891
4.39097
3.98821
-94.4691
188.779
-25.8883
3.9487
4.50531
3.8461
4.16866
1009.14
5.08402
96.9156
3.79823
5.23035
4.91679
4.03772
1.49888
3.76376
915.501
564.48
448.825
3.15312
80.5266
331.387
273.929
4.44529
4.26154
4.43317
842.967
-0.564965
-2.3653
5.27196
2.58652
3.96233
-28.8403
1.19448
3.9297
4.31579
4.7002
4.49055
0.867873
5.14647
22.6465
4.15405
4.06892
2.64497
4.44166
-1.2071
4.12426
4.23523
4.80979
18.0945
4.84872
4.84279
3.89308
4.72977
11.7784
4.73256
4.40418
817.985
242.517
2.69538
4.47246
3.65416
5.19399
103.061
-3.18789
941.286
-8.97937
2.04588
3.73682
4.98127
3.6646
197.469
4.72382
1763.43
10.5049
4.8038
3.08641
756.567
-0.301625
4.86477
4.30274
4.73493
4.13176
4.42037
5.59042
3.82097
-1445.27
4.67855
4.4225
1796.71
4.9981
1.72223
3.75698
5.19367
1046.07
1123.03
3.61595
4.78905
4.42075
5.04185
1419.39
4.32454
4.36677
850.791
747.383
3.29757
4.71238
956.304
1192.06
4.9794
4.98203
1728.09
59.1003
4.97512
5.4537
4.38126
6.53639
4.13207
5.95671
5.69951
812.613
2.23323
5.13067
4.69489
5.19725
3.60264
353.271
4.99138
-84.6786
-99.7576
4.44516
5.01592
5.90587
580.338
5.23726
4.34174
4.80158
4.60601
4.90067
1065.47
4.84322
5.61228
5.40707
5.97289
2.99084
-45.581
4.93141
4.35314
5.59238
5.14739
4.5893
5.33978
2.15872
3.02041
726.449
4.90858
4.13146
4.88307
4.96587
96.7143
3.69319
5.28096
4.50726
153.552
5.17768
777.822
4.96555
4.08538
4.2997
4.7904
4.17318
4.83366
4.77994
5.79898
3.50527
3.96682
5.35022
2.76611
4.6721
1142.24
4.07732
4.49546
4.87264
850.265
3.47877
5.28333
4.1197
6.30499
37.3442
1.30775
4.32971
6.63459
285.222
5.09107
-18.2527
981.898
4.74694
4.97199
5.07197
4.01982
4.45121
5.25182
5.18266
4.42273
5.07928
4.86075
4.07441
137.231
4.77593
416.975
3.98279
14.7472
4.04501
-440.992
5.73214
1054.99
4.29424
5.04029
3.89264
4.15551
4.29038
4.6165
4.86504
5.56498
-1.47652
1388.85
3.98579
4.63948
15.0392
509.845
4.09118
1254.94
4.39187
5.19891
4.76393
663.894
4.50048
4.02839
4.30742
1229.09
3.96314
6.84841
43.5378
3.96882
1553.79
4.8879
4.06479
3.55662
4.28482
4.84242
2.90895
4.1089
5.16522
485.084
3.79551
5.24476
4.5976
5.04755
5.38014
2.71855
5.05953
4.32511
4.72893
4.95439
509.275
5.61109
4.76535
1162.55
4.64181
4.51421
5.05724
4.96476
5.39011
3.9956
5.45017
3.71762
5.06288
4.23726
178.838
4.44236
3.87806
4.63499
4.4898
4.7428
4.61185
973.796
4.89534
6.90746
3.86393
3.63091
4.51321
3.61
5.26779
4.75973
4.59866
-492.801
1217.85
3.97556
3.7817
5.22039
630.615
4.28586
5.1833
5.31563
4.32933
3.87902
4.03688
3.77052
4.64953
4.63487
4.93023
5.54255
4.44349
4.5906
4.06271
4.92075
4.97955
3.43746
4.25659
2.57307
3.81505
3.79817
4.73171
3.55079
3.55559
4.67913
4.98612
4.81259
5.47917
4.10253
267.765
3.70804
4.32166
4.60811
1083.39
4.98463
4.85883
3.5953
4.48511
3.01408
4.41749
4.77095
4.04984
3.57949
1745.05
18.196
6.14091
4.34268
1812.33
3.75751
4.09826
3.54143
5.08399
4.46856
4.26925
5.00546
4.22146
4.51584
4.33743
3.4942
4.29231
3.83057
5.26538
5.63501
3.89577
5.44866
4.11642
5.86724
4.56599
3.9795
5.17205
739.443
4.84596
4.06272
3.69723
4.37312
3.95665
5.05612
4.43097
4.12358
4.03915
0.35204
4.46478
4.60955
5.37806
4.24024
4.76921
1347.33
3.42991
425.156
4.15764
56.4031
4.79246
3.58245
3.68063
4.87604
4.65951
3.99693
4.29157
4.67341
4.03891
3.70505
5.07519
3.442
4.62246
4.69224
3.12365
5.14088
6.01716
3.52755
3.41792
4.28494
4.38159
449.285
4.39165
4.93501
435.878
4.07378
5.37003
4.67886
968.935
4.15808
3.37361
3.45603
4.08134
4.33787
3.68817
3.36063
4.72934
4.43923
4.05656
3.31464
3.88816
4.63813
2.56729
3.94418
4.96228
4.19519
3.84228
4.13479
3.37681
3.57445
4.11056
1213.72
3.90725
3.63487
5.36779
4.52907
5.24912
3.36051
3.72423
4.21375
4.79939
3.96567
4.15666
4.2097
3.51742
4.60963
3.4069
3.34963
4.571
4.60915
4.32281
3.39129
5.01923
3.65761
4.36201
4.0171
4.50043
4.49336
205.963
4.86192
4.26365
4.17824
5.13175
4.10835
4.83156
5.25159
5.72167
3.23657
4.28613
5.29875
3.79947
4.35979
4.65111
1158.62
4.82801
2.82808
4.0266
3.87317
667.194
1132.9
3.2489
4.07269
3.92787
3.56008
3.40639
4.89709
4.03415
5.26549
4.97835
4.93054
1338.02
891.999
4.40557
5.04999
4.44834
3.50443
5.2801
5.28223
4.43296
3.98405
514.477
4.68851
4.06375
3.76153
4.08603
3.39388
19.212
3.22514
5.17762
5.55822
3.84154
5.23257
4.49327
3.26112
4.25775
3.33727
5.24756
4.95996
3.74097
5.33545
4.19703
1022.99
4.1863
4.92852
8.00739
5.24897
5.05543
3.90257
3.16774
4.5296
3.17903
5.15906
5.39725
3.67413
4.12246
1192.1
4.76181
4.01472
4.42498
4.78289
5.34817
5.37742
4.23507
3.5144
5.20816
4.4435
4.53504
3.19211
4.44573
5.65835
5.4604
1212.33
3.93443
4.25039
4.0946
4.32896
4.18747
286.754
5.15052
3.19549
4.31222
5.27318
3.275
3.85311
4.65029
5.22318
4.79693
5.48839
3.90659
1391.37
3.74488
3.97898
3.49073
3.38044
4.61615
4.01042
3.29675
3.53911
4.3742
3.26909
3.68869
5.24706
4.99738
3.32416
4.23107
4.33688
5.21148
3.21257
5.11612
4.83713
4.06131
5.25655
5.24033
5.18257
75.0408
4.03442
3.15546
1115.7
4.15994
3.20985
4.8693
4.65499
4.46196
4.54884
2.74412
4.1787
3.46922
4.07621
4.18216
3.28962
5.27741
5.27668
3.7478
3.68269
3.06619
3.05362
4.20796
4.12798
3.04215
1765.58
3.82295
5.22878
956.457
4.00308
4.04661
3.83255
5.03216
3.5575
5.28488
5.01351
4.50427
4.30131
4.29437
5.26188
3.72603
5.2361
5.44484
3.67141
3.36689
3.88514
3.87734
4.73272
4.90521
5.31604
3.31099
1838.56
3.98754
4.2472
3.19957
5.1518
3.48932
32.9103
2.22444
3.07855
4.5934
5.3082
3.224
4.16117
2.50868
5.63163
5.47121
3.90528
3.14287
5.27661
1417.32
4.34663
2.99588
4.03779
2.98449
3.55947
3.00974
5.22478
5.4586
3.02991
4.34744
5.47566
3.99828
1357.08
4.58766
5.32092
4.77066
3.94823
4.13568
3.16591
4.11879
1422.62
1346.33
4.27883
744.839
5.62167
1974.42
3.01297
441.812
2.97248
3.14266
4.09684
4.18354
5.33292
3.81255
4.43544
5.35758
3.65319
3.09197
3.70713
1392.18
3.18656
5.4413
3.67797
4.6284
3.86456
5.37666
3.29742
5.33675
4.60008
4.02254
4.7689
4.15679
217.388
3.24074
3.54446
3.50241
1218.59
5.3196
5.10803
3.56969
3.13013
4.27724
4.15027
3.73845
3.78772
3.48785
4.98135
3.25497
5.43911
3.96622
966.511
4.66608
3.34487
1345
3.02643
3.01748
4.47883
37.2427
3.78964
1342.69
5.57139
4.84897
5.39567
2.88485
5.4593
4.01621
5.16649
5.26789
4.17067
3.36673
5.46952
2.85789
3.83744
4.32313
2.86944
2.9603
5.39087
3.10562
4.46171
4.71037
3.6355
4.11413
3.68897
4.77831
2.81779
3.9096
959.772
4.00813
5.68845
3.52758
3.79375
1408.11
5.14775
3.47254
4.16227
2.8948
5.02023
4.02464
2.84609
5.47891
4.79076
3.03961
3.17342
5.22758
4.56507
5.60193
6.45322
2.81147
3.29516
3.11723
517.595
5.38779
3.00502
5.60074
3.8455
5.47372
5.36643
3.95764
4.88846
5.51517
3.95279
4.41376
670.986
4.57101
5.46221
2.88422
3.35985
1192.16
4.75096
2.82978
288.354
3.10085
3.94705
2.94804
4.01032
2.78828
2.80005
4.25709
4.19016
30.6574
3.09435
3.50782
3.5717
3.6577
2.90747
5.35045
3.12148
5.45631
98.8988
4.60774
5.76925
3.61882
3.99714
3.38152
5.58544
3.45671
3.31284
3.51139
889.594
3.71004
4.01088
5.75494
2.83417
5.58008
3.67206
4.45848
5.24589
6.83715
3.05467
4.09576
1924.36
3.75788
5.43747
4.2777
4.11086
3.9664
3.34673
4.30385
2.84161
3.7767
5.10286
2.99258
5.29667
2.69879
4.97051
3.28978
2.77652
4.76392
1.2326
3.8011
3.79115
5.82411
3.10456
4.14447
2.93578
5.55768
2.92034
5.27331
3.82848
1269.7
4.83456
2.68419
7.24547
5.47601
3.24946
5.54001
2.71044
1505.06
3.94072
4.69372
4.13422
5.72332
2.82225
3.16873
3.93048
3.44182
5.71061
4.53922
4.54779
5.65294
3.49631
3.07087
1107.89
2.97206
3.33216
2.67263
4.99966
2.85401
3.27647
5.40245
4.39674
3.60364
2.66118
3.98095
1571.18
1419.41
5.01241
5.13382
2.76473
4.00701
4.24092
4.8767
4.9121
5.14549
2.62623
2.63268
5.49658
3.65687
5.67637
5.23044
2.64424
4.73682
5.36098
2.93465
4.04969
3.50183
1645.33
4.08078
5.65801
2.72179
2.98044
3.55928
3.62622
2.92376
3.16244
4.59228
3.76184
3.32294
2.96842
3.38945
34.0549
4.64325
4.27498
2.81042
4.44286
2.64969
567.558
1021.52
1501.32
5.36143
3.66882
2.61432
5.88476
5.86311
4.28875
4.07258
1408.57
3.81388
5.53503
2.86761
4.01349
2.60299
2.65571
3.42823
3.73605
3.26304
3.3186
2.75302
4.13028
3.18709
5.61418
3.9168
4.41895
4.21132
3.48273
3.11647
2.59159
4.96323
3.15145
5.4948
4.82449
1352.73
5.58541
4.39251
2.94983
3.59033
3.7798
5.81655
2.73394
5.79421
3.96788
4.68193
3.09368
2.63825
5.94497
2.52377
4.53518
3.64376
441.914
2.7989
4.38406
47.567
5.67751
5.09951
3.97702
2.91218
2.66735
2.90652
4.22868
2.51246
217.701
664.533
3.74946
2.74159
2.88208
4.46387
2.58022
5.74327
4.86871
4.06928
5.27757
53.0068
3.25081
5.21932
5.41328
3.13917
2.49797
3.30639
5.71556
2.48638
5.52723
5.60557
4.18431
5.61455
3.80196
3.32624
4.72695
3.4163
3.08268
5.63419
2.53496
3.38823
3.48457
5.30022
2.62695
4.58133
3.95059
4.08036
2.45745
2.47526
2.74693
4.43157
5.00724
3.47096
3.53295
3.58843
5.94854
4.27764
2.46844
5.71394
5.9773
5.55198
3.90617
4.73748
3.57918
4.11971
883.67
50.4117
2.56899
3.61715
2.67977
2.44613
2.89713
3.19776
5.65311
2.46411
1527.98
2.7879
2.96716
5.83966
4.72619
3.633
42.7014
5.88851
2.73058
3.71386
3.95804
3.13014
5.14412
5.36939
5.8582
4.08897
2.4395
2.61596
1646.16
504.294
2.42779
2.4167
5.50851
2.54648
5.2327
2.77961
4.81785
6.04617
3.73978
3.07159
3.24005
4.59311
4.67407
3.12812
1564.06
1171.9
2.33613
2121.21
3.2958
4.52667
5.69681
2.40559
2.76046
2.55805
4.95851
2.45306
4.37538
3.40626
2047.48
3.77897
2.32508
4.2202
2.91656
5.79321
2.47965
5.97524
1543.47
2.347
3.79287
3.32242
4.32218
3.92225
2.95819
3.46126
4.06124
1563.93
2.69277
5.75797
5.65239
5.31016
4.35394
3.37781
3.57043
2.89989
3.20227
2.26956
2.25859
2.28027
5.09727
2.39457
4.86416
2.98881
2.31068
2.44219
6.01561
6.05067
2.55846
3.89874
2.60548
4.72109
1404.85
2.72025
4.57465
2.25179
4.42451
2.28833
1383.42
3.46017
1789.18
2152.96
2.54754
2.2992
4.27054
5.96558
1857.87
3.62479
5.85143
5.42051
4.11281
5.00447
3.13765
3.06184
3.49636
5.94379
5.56371
3.54847
3.231
2.4912
3.11854
5.28014
5.90702
4.52191
2.27744
2.13673
6.12823
2.24026
4.06278
2.94812
2.35803
2.43165
3.28704
2.12264
3.95151
2.22943
2139.42
2.38373
5.80389
2.14748
2.29105
2.71406
3.73305
517.438
2.89074
3.39835
2174.35
2.77422
2.11101
3.56932
2.21853
295.045
5.14329
2.15808
7.8178
86.9445
2.39858
3.45382
3.2003
361.649
5.71205
2.06332
2.37318
5.24956
2.08072
2.10045
2.05172
3.78688
2.59569
739.181
2.07018
3.13978
5.51854
2.26671
2.70622
5.37568
2.53767
2.77419
5.78628
3.31659
5.82966
2.57073
4.25926
4.7124
1899.56
5.23493
1.93321
6.0737
2.4216
2.04122
1497.94
2.20779
3.56421
2.09122
3.00221
4.83017
4.82127
1.92156
2.16867
3.77042
50.0181
49.3676
6.06768
2055.37
1.86158
6.10815
3.05363
2.36921
2.93938
2.08972
2.30195
2.36307
59.0357
2.5881
1077.03
961.436
2.50311
2.10165
2196.53
4.65892
2.88184
5.66563
3.1106
4.95822
5.86749
4.81654
2.25619
6.19391
1991.89
1870.51
4.67188
2.78944
2340.05
2.03043
3.22384
1561.8
4.52378
1.91153
4.372
3.36477
45.149
4.21649
3.61918
43.7271
1.85228
1.87446
1963.14
4.44499
4.05734
2.70784
5.98561
2.19726
2.76652
1.94756
3.2803
1.96828
2.246
5.21666
2.41221
5.09779
1.95795
1793.98
2.07923
3.13846
2.52859
5.94328
5.94357
6.16207
2257.27
3.89476
2.93333
3.00942
2.35358
3.39269
2.0199
5.81907
1.90092
2.18703
4.16753
3.19497
2.17928
6.03211
1.73618
3.44622
1.84174
1.97848
2.11206
2.2363
5.23819
2.52246
2.87435
5.37945
2.06897
2.71943
3.59445
1.88048
3.01198
2.31303
3.72901
1.90128
2.70022
2.93216
5.52304
2.40365
3.44861
1.89107
2.17724
1441.98
2.58248
3.45
2.75852
2.58309
2.34484
1.9114
2071.12
2.38055
2220.55
2.51529
5.98032
2.0096
2343.28
1.75118
1.72394
3.87118
3.04714
2412.68
2.39672
1.89063
2287.9
6.24549
6.23327
2.2315
2.22723
2.94878
2.94344
2005.07
3.01113
2.95059
5.67076
2.05906
6.15222
2.21894
2.51665
1.83142
2.33702
3.10449
6.10709
3.32043
3.56021
2.16804
2.57605
3.13813
2.69333
2091.33
5.0041
1.98861
1790.64
4.86318
2.04962
4.71948
2.15956
2.18991
4.5725
1.99962
1.71368
4.42192
2.21158
2.95089
5.82454
4.26764
4.10969
2.75189
5.14911
2.15195
2.12249
3.2187
2.33122
1.92139
1602.82
43.2508
37.349
3.94825
2.86843
1.88059
2.04079
1.77506
2.39145
2443.27
1.75484
2.51068
2.03272
1.76533
5.986
6.01508
2016.08
3.78356
1.78482
1.99007
6.28965
3.01154
2.2056
2.02552
2.82123
2.56993
5.14354
5.28383
1.82132
1.98109
5.42612
2.32426
3.38872
2.14535
3.27549
2445.5
1.66847
1.66423
1.7036
5.9663
3.19321
2.39191
1.96536
1.97281
2.73471
2.8226
2.6879
2.5951
2.32629
5.57126
2.60706
2.75969
2.92659
6.21355
2.81926
3.61578
2.52732
1663.18
1637.01
2012.21
2.75838
2.38639
2.01935
1.84508
1.65423
1.853
2498.25
6.28487
3.44395
1.95886
2.40299
2.20053
2.50566
2.75459
1.838
1.79441
2.74679
3.5396
3.47872
3.35413
5.72125
1.87088
2.95053
2.1403
2.81428
3.04245
2.13302
1.86164
1.99873
2306.52
2.53873
3.4452
5.87792
2.20103
1.71514
6.33323
2.41334
1.77776
1.78511
1.6884
2.32182
1.64407
1.69367
2.33537
2.74711
1.69528
2.76126
2.56523
1.70554
2.80456
1.83189
1865.16
2.01443
1.93126
1.95346
3.14232
2.86415
2.55034
6.15621
6.04291
2.34606
2234.45
1.81151
2.42287
2.62899
2.62525
1.77132
1.79328
1.72482
2.56494
2.21101
2.38202
2.55954
2.13637
2.63197
2455.8
2521.11
1.82685
2.61808
2.56766
6.18462
6.51594
1.65816
1.6341
2.221
2.00883
1.65101
2.35584
3.21478
3.27209
1.76592
1.94936
2.19726
2.68396
3.01273
2.82406
3.10004
2.57162
1.66614
1.64479
1.82295
6.13458
2.01089
2.23006
2.50201
2231.31
2085.34
2.1435
1.76159
2.43621
1.80384
1.7343
2.15371
2.43091
1.80212
2.37136
2.74296
2.37525
2.36477
1.63957
2.63501
2.31845
3.32343
2.92247
1.59043
2.44056
1.59788
1.68403
1.62436
2.23779
3.1984
2.1633
2.38134
2.13335
1.9411
1.58387
1.63536
1.94676
2.86037
2.68025
2.73966
2.01888
6.36545
2.02872
1.5783
1.75845
2.17175
2.24891
2.44541
1.75253
1.81303
1.822
1.6748
2.19003
1.60611
1.57374
2.18282
2.038
2.24352
2.56164
2.25506
1.5702
1.6322
1.82058
2.04622
2.0528
2.37864
1.95084
2.17865
2.19408
2.06374
1.99763
2.00806
3.35284
1.85449
1.79197
1.86061
2.05717
1.98554
2302.04
2445.12
1.80299
2508.14
1.86584
2520.16
2.37547
2.31491
1.61499
2.49838
2.55839
2.91913
2.12996
2.19102
3.09667
3.0386
1.83923
1.77769
1.74356
1.78522
1.84723
1.76963
1.83075
1.79773
1.56724
1.63008
1.75608
1.81805
2.00518
1.94367
1.76123
1.99093
276.846
1.97825
1.96046
1.96972
6.3133
6.38715
1809.91
10.587
1635.2
6.39759
6.20526
5.14305
4.81022
6.15039
6.33077
1273.84
136.945
1671.5
1531.1
6.33687
1566.26
5.08454
374.344
1716.4
5.22465
1268.46
0.749972
6.23604
1735.21
5.52116
5.31862
666.924
656.018
-1314.68
588.289
232.714
778.206
1560.89
1590.96
1697.14
49.5779
50.8272
50.7226
1523.88
5.93895
5.10738
48.3122
-0.789491
-1.8404
1775.92
1807.42
670.722
-116.493
61.8365
44.0197
1919.38
2114.73
47.9662
970.477
686.744
514.637
519.581
580.811
780.452
3087.22
2722.08
1641.04
5.8149
51.5577
5.82967
228.276
50.3866
-2.0432
50.005
-11.4531
49.0553
5.66205
49.26
4.14284
2.27738
50.7729
-6.75343
48.1209
5.25883
47.8676
4.10444
2.23699
5.56759
5.58851
46.0217
4.09548
46.7931
-1.37719
47.4927
2.33814
5.45769
4.1267
-9.17513
28.8003
3022.07
5.38102
4.13335
36.601
4.0846
5.33734
-4.48869
5.28448
4.05935
-62.7292
5.19484
-13.0595
-9.86285
32.9633
-69.6967
5.23626
2293.4
2000.07
4.11146
)
;

boundaryField
{
    patch0
    {
        type            calculated;
        value           nonuniform List<scalar> 
4010
(
2.84217e-14
2.84217e-14
10.7553
10.7553
4.38016
4.38016
4.48372
4.48372
4.53549
4.53549
4.29096
4.29096
4.21624
4.21624
4.14964
4.14964
4.16155
4.16155
4.15702
4.15702
4.07675
4.07675
4.10317
4.10317
2.62378
2.62378
4.13142
4.13142
3.85103
3.85103
3.78193
3.78193
4.28355
4.28355
4.11273
4.11273
-34.1353
-34.1353
4.14202
4.14202
0.547826
0.547826
5.05844
5.05844
4.70659
4.70659
4.12903
4.12903
4.96112
4.96112
4.54185
4.54185
4.53948
4.53948
-4.10201
-4.10201
4.55213
4.55213
716.758
716.758
4.97557
4.97557
4.8598
4.8598
3.09363
3.09363
4.13645
4.13645
4.83545
4.83545
5.09429
5.09429
4.87246
4.87246
4.51641
4.51641
758.45
758.45
4.99049
4.99049
4.76348
4.76348
-0.43957
-0.43957
4.65667
4.65667
4.3482
4.3482
367.462
367.462
4.82215
4.82215
-334.715
-334.715
201.627
201.627
35.0196
35.0196
3.85359
3.85359
4.66468
4.66468
0.316628
0.316628
5.13949
5.13949
4.52891
4.52891
4.39097
4.39097
3.98821
3.98821
-94.4691
-94.4691
188.779
188.779
-25.8883
-25.8883
3.9487
3.9487
4.50531
4.50531
3.8461
3.8461
4.16866
4.16866
1009.14
1009.14
5.08402
5.08402
96.9156
96.9156
3.79823
3.79823
5.23035
5.23035
4.91679
4.91679
4.03772
4.03772
1.49888
1.49888
3.76376
3.76376
915.501
915.501
564.48
564.48
448.825
448.825
3.15312
3.15312
80.5266
80.5266
331.387
331.387
273.929
273.929
4.44529
4.44529
4.26154
4.26154
4.43317
4.43317
842.967
842.967
-0.564965
-0.564965
-2.3653
-2.3653
5.27196
5.27196
2.58652
2.58652
3.96233
3.96233
-28.8403
-28.8403
1.19448
1.19448
3.9297
3.9297
4.31579
4.31579
4.7002
4.7002
4.49055
4.49055
0.867873
0.867873
5.14647
5.14647
22.6465
22.6465
4.15405
4.15405
4.06892
4.06892
2.64497
2.64497
4.44166
4.44166
-1.2071
-1.2071
4.12426
4.12426
4.23523
4.23523
4.80979
4.80979
18.0945
18.0945
4.84872
4.84872
4.84279
4.84279
3.89308
3.89308
4.72977
4.72977
11.7784
11.7784
4.73256
4.73256
4.40418
4.40418
817.985
817.985
242.517
242.517
2.69538
2.69538
4.47246
4.47246
3.65416
3.65416
5.19399
5.19399
103.061
103.061
-3.18789
-3.18789
941.286
941.286
-8.97937
-8.97937
2.04588
2.04588
3.73682
3.73682
4.98127
4.98127
3.6646
3.6646
197.469
197.469
4.72382
4.72382
1763.43
1763.43
10.5049
10.5049
4.8038
4.8038
3.08641
3.08641
756.567
756.567
-0.301625
-0.301625
4.86477
4.86477
4.30274
4.30274
4.73493
4.73493
4.13176
4.13176
4.42037
4.42037
5.59042
5.59042
3.82097
3.82097
-1445.27
-1445.27
-1414.56
4.67855
4.67855
4.71531
4.4225
4.4225
1796.71
1796.71
4.9981
4.9981
1.72223
1.72223
3.75698
3.75698
5.19367
5.19367
1046.07
1046.07
1123.03
1123.03
1216.77
3.61595
3.61595
4.78905
4.78905
4.42075
4.42075
5.04185
5.04185
1419.39
1419.39
4.32454
4.32454
4.36677
4.36677
850.791
850.791
747.383
747.383
3.29757
3.29757
4.71238
4.71238
956.304
956.304
1192.06
1192.06
4.9794
4.9794
4.98203
4.98203
1728.09
1728.09
59.1003
59.1003
4.97512
4.97512
5.4537
5.4537
4.38126
4.38126
6.53639
6.53639
4.13207
4.13207
5.95671
5.95671
5.69951
5.69951
812.613
812.613
2.23323
2.23323
5.13067
5.13067
4.69489
4.69489
5.19725
5.19725
3.60264
3.60264
353.271
353.271
4.99138
4.99138
-84.6786
-84.6786
-99.7576
-99.7576
4.44516
4.44516
5.01592
5.01592
5.90587
5.90587
580.338
580.338
5.23726
5.23726
4.34174
4.34174
4.80158
4.80158
4.60601
4.60601
4.90067
4.90067
1065.47
1065.47
1159.22
4.84322
4.84322
5.61228
5.61228
5.40707
5.40707
5.97289
5.97289
2.99084
2.99084
-45.581
-45.581
4.93141
4.93141
4.35314
4.35314
5.59238
5.59238
5.14739
5.14739
4.5893
4.5893
5.33978
5.33978
2.15872
2.15872
3.02041
3.02041
3.04875
726.449
726.449
4.90858
4.90858
4.13146
4.13146
4.88307
4.88307
4.96587
4.96587
96.7143
96.7143
3.69319
3.69319
5.28096
5.28096
4.50726
4.50726
153.552
153.552
5.17768
5.17768
777.822
777.822
4.96555
4.96555
4.08538
4.08538
4.2997
4.2997
4.7904
4.7904
4.17318
4.17318
4.83366
4.83366
4.77994
4.77994
5.79898
5.79898
3.50527
3.50527
3.96682
3.96682
5.35022
5.35022
2.76611
2.76611
4.6721
4.6721
1142.24
1142.24
1170.58
4.07732
4.07732
4.49546
4.49546
4.87264
4.87264
850.265
850.265
944.006
3.47877
3.47877
5.28333
5.28333
4.1197
4.1197
6.30499
6.30499
37.3442
37.3442
1.30775
1.30775
4.32971
4.32971
6.63459
6.63459
285.222
285.222
5.09107
5.09107
-18.2527
-18.2527
981.898
981.898
4.74694
4.74694
4.97199
4.97199
5.07197
5.07197
4.01982
4.01982
4.45121
4.45121
5.25182
5.25182
5.18266
5.18266
4.42273
4.42273
5.07928
5.07928
4.86075
4.86075
4.07441
4.07441
137.231
137.231
4.77593
4.77593
416.975
416.975
3.98279
3.98279
14.7472
14.7472
4.04501
4.04501
-440.992
-440.992
5.73214
5.73214
1054.99
1054.99
4.29424
4.29424
5.04029
5.04029
3.89264
3.89264
4.15551
4.15551
4.29038
4.29038
4.6165
4.6165
4.86504
4.86504
5.56498
5.56498
-1.47652
-1.47652
1388.85
1388.85
1455.64
3.98579
3.98579
4.63948
4.63948
15.0392
15.0392
509.845
509.845
4.09118
4.09118
1254.94
1254.94
4.39187
4.39187
5.19891
5.19891
4.76393
4.76393
663.894
663.894
4.50048
4.50048
4.02839
4.02839
4.30742
4.30742
1229.09
1229.09
3.96314
3.96314
6.84841
6.84841
43.5378
43.5378
3.96882
3.96882
1553.79
1553.79
1643.57
4.8879
4.8879
4.06479
4.06479
3.55662
3.55662
4.28482
4.28482
4.84242
4.84242
2.90895
2.90895
4.1089
4.1089
5.16522
5.16522
485.084
485.084
3.79551
3.79551
5.24476
5.24476
4.5976
4.5976
5.04755
5.04755
5.38014
5.38014
2.71855
2.71855
5.05953
5.05953
4.32511
4.32511
4.72893
4.72893
4.95439
4.95439
509.275
509.275
5.61109
5.61109
4.76535
4.76535
1162.55
1162.55
4.64181
4.64181
4.51421
4.51421
5.05724
5.05724
4.96476
4.96476
5.39011
5.39011
3.9956
3.9956
5.45017
5.45017
3.71762
3.71762
5.06288
5.06288
4.23726
4.23726
178.838
178.838
4.44236
4.44236
3.87806
3.87806
4.63499
4.63499
4.4898
4.4898
4.7428
4.7428
4.61185
4.61185
973.796
973.796
4.89534
4.89534
6.90746
6.90746
3.86393
3.86393
3.63091
3.63091
4.51321
4.51321
3.61
3.61
5.26779
5.26779
4.75973
4.75973
4.59866
4.59866
-492.801
-492.801
1217.85
1217.85
3.97556
3.97556
3.7817
3.7817
5.22039
5.22039
630.615
630.615
4.28586
4.28586
5.1833
5.1833
5.31563
5.31563
4.32933
4.32933
3.87902
3.87902
4.03688
4.03688
3.77052
3.77052
4.64953
4.64953
4.63487
4.63487
4.93023
4.93023
5.54255
5.54255
4.44349
4.44349
4.5906
4.5906
4.06271
4.06271
4.92075
4.92075
4.97955
4.97955
3.43746
3.43746
4.25659
4.25659
2.57307
2.57307
3.81505
3.81505
3.79817
3.79817
4.73171
4.73171
3.55079
3.55079
3.55559
3.55559
4.67913
4.67913
4.98612
4.98612
4.81259
4.81259
5.47917
5.47917
4.10253
4.10253
267.765
267.765
3.70804
3.70804
4.32166
4.32166
4.60811
4.60811
1083.39
1083.39
4.98463
4.98463
4.85883
4.85883
3.5953
3.5953
4.48511
4.48511
3.01408
3.01408
3.05088
4.41749
4.41749
4.77095
4.77095
4.04984
4.04984
3.57949
3.57949
1745.05
1745.05
18.196
18.196
6.14091
6.14091
4.34268
4.34268
1812.33
1812.33
1860.7
3.75751
3.75751
4.09826
4.09826
3.54143
3.54143
5.08399
5.08399
4.46856
4.46856
4.26925
4.26925
5.00546
5.00546
4.22146
4.22146
4.51584
4.51584
4.33743
4.33743
3.4942
3.4942
4.29231
4.29231
3.83057
3.83057
5.26538
5.26538
5.63501
5.63501
3.89577
3.89577
5.44866
5.44866
4.11642
4.11642
5.86724
5.86724
4.56599
4.56599
3.9795
3.9795
5.17205
5.17205
739.443
739.443
4.84596
4.84596
4.06272
4.06272
3.69723
3.69723
4.37312
4.37312
3.95665
3.95665
5.05612
5.05612
4.43097
4.43097
4.12358
4.12358
4.03915
4.03915
0.35204
0.35204
4.46478
4.46478
4.60955
4.60955
5.37806
5.37806
4.24024
4.24024
4.76921
4.76921
1347.33
1347.33
3.42991
3.42991
425.156
425.156
462.085
4.15764
4.15764
56.4031
56.4031
4.79246
4.79246
3.58245
3.58245
3.68063
3.68063
4.87604
4.87604
4.65951
4.65951
3.99693
3.99693
4.29157
4.29157
4.67341
4.67341
4.03891
4.03891
3.70505
3.70505
5.07519
5.07519
3.442
3.442
4.62246
4.62246
4.69224
4.69224
3.12365
3.12365
5.14088
5.14088
6.01716
6.01716
3.52755
3.52755
3.41792
3.41792
4.28494
4.28494
4.38159
4.38159
449.285
449.285
4.39165
4.39165
4.93501
4.93501
435.878
435.878
4.07378
4.07378
5.37003
5.37003
4.67886
4.67886
968.935
968.935
4.15808
4.15808
3.37361
3.37361
3.45603
3.45603
4.08134
4.08134
4.33787
4.33787
3.68817
3.68817
3.36063
3.36063
4.72934
4.72934
4.43923
4.43923
4.05656
4.05656
3.31464
3.31464
3.88816
3.88816
4.63813
4.63813
2.56729
2.56729
3.94418
3.94418
4.96228
4.96228
4.19519
4.19519
3.84228
3.84228
4.13479
4.13479
3.37681
3.37681
3.57445
3.57445
4.11056
4.11056
1213.72
1213.72
3.90725
3.90725
3.63487
3.63487
5.36779
5.36779
4.52907
4.52907
5.24912
5.24912
3.36051
3.36051
3.72423
3.72423
4.21375
4.21375
4.79939
4.79939
3.96567
3.96567
4.15666
4.15666
4.2097
4.2097
3.51742
3.51742
4.60963
4.60963
3.4069
3.4069
3.34963
3.34963
4.571
4.571
4.60915
4.60915
4.32281
4.32281
3.39129
3.39129
5.01923
5.01923
3.65761
3.65761
4.36201
4.36201
4.0171
4.0171
4.50043
4.50043
4.49336
4.49336
205.963
205.963
4.86192
4.86192
4.26365
4.26365
4.17824
4.17824
5.13175
5.13175
4.10835
4.10835
4.83156
4.83156
5.25159
5.25159
5.72167
5.72167
3.23657
3.23657
4.28613
4.28613
5.29875
5.29875
3.79947
3.79947
4.35979
4.35979
4.65111
4.65111
1158.62
1158.62
4.82801
4.82801
2.82808
2.82808
4.0266
4.0266
3.87317
3.87317
667.194
667.194
1132.9
1132.9
3.2489
3.2489
4.07269
4.07269
3.92787
3.92787
3.56008
3.56008
3.40639
3.40639
4.89709
4.89709
4.03415
4.03415
5.26549
5.26549
4.97835
4.97835
4.93054
4.93054
1338.02
1338.02
891.999
891.999
4.40557
4.40557
5.04999
5.04999
4.44834
4.44834
3.50443
3.50443
5.2801
5.2801
5.28223
5.28223
4.43296
4.43296
3.98405
3.98405
514.477
514.477
4.68851
4.68851
4.06375
4.06375
3.76153
3.76153
4.08603
4.08603
3.39388
3.39388
19.212
19.212
3.22514
3.22514
5.17762
5.17762
5.55822
5.55822
3.84154
3.84154
5.23257
5.23257
4.49327
4.49327
3.26112
3.26112
4.25775
4.25775
3.33727
3.33727
5.24756
5.24756
4.95996
4.95996
3.74097
3.74097
5.33545
5.33545
4.19703
4.19703
1022.99
1022.99
4.1863
4.1863
4.92852
4.92852
8.00739
8.00739
5.24897
5.24897
5.05543
5.05543
3.90257
3.90257
3.16774
3.16774
4.5296
4.5296
3.17903
3.17903
5.15906
5.15906
5.39725
5.39725
3.67413
3.67413
4.12246
4.12246
1192.1
1192.1
4.76181
4.76181
4.01472
4.01472
4.42498
4.42498
4.78289
4.78289
5.34817
5.34817
5.37742
5.37742
4.23507
4.23507
3.5144
3.5144
5.20816
5.20816
4.4435
4.4435
4.53504
4.53504
3.19211
3.19211
4.44573
4.44573
5.65835
5.65835
5.4604
5.4604
1212.33
1212.33
3.93443
3.93443
4.25039
4.25039
4.0946
4.0946
4.32896
4.32896
4.18747
4.18747
286.754
286.754
5.15052
5.15052
3.19549
3.19549
4.31222
4.31222
5.27318
5.27318
3.275
3.275
3.85311
3.85311
4.65029
4.65029
5.22318
5.22318
4.79693
4.79693
5.48839
5.48839
3.90659
3.90659
1391.37
1391.37
3.74488
3.74488
3.97898
3.97898
3.49073
3.49073
3.38044
3.38044
4.61615
4.61615
4.01042
4.01042
3.29675
3.29675
3.53911
3.53911
4.3742
4.3742
3.26909
3.26909
3.68869
3.68869
5.24706
5.24706
4.99738
4.99738
3.32416
3.32416
4.23107
4.23107
4.33688
4.33688
5.21148
5.21148
3.21257
3.21257
5.11612
5.11612
4.83713
4.83713
4.06131
4.06131
5.25655
5.25655
5.24033
5.24033
5.18257
5.18257
75.0408
75.0408
4.03442
4.03442
3.15546
3.15546
1115.7
1115.7
4.15994
4.15994
3.20985
3.20985
4.8693
4.8693
4.65499
4.65499
4.46196
4.46196
4.54884
4.54884
2.74412
2.74412
4.1787
4.1787
3.46922
3.46922
4.07621
4.07621
4.18216
4.18216
3.28962
3.28962
5.27741
5.27741
5.27668
5.27668
3.7478
3.7478
3.68269
3.68269
3.06619
3.06619
3.05362
3.05362
4.20796
4.20796
4.12798
4.12798
3.04215
3.04215
1765.58
1765.58
3.82295
3.82295
5.22878
5.22878
956.457
956.457
4.00308
4.00308
4.04661
4.04661
3.83255
3.83255
5.03216
5.03216
3.5575
3.5575
5.28488
5.28488
5.01351
5.01351
4.50427
4.50427
4.30131
4.30131
4.29437
4.29437
5.26188
5.26188
3.72603
3.72603
5.2361
5.2361
5.44484
5.44484
3.67141
3.67141
3.36689
3.36689
3.88514
3.88514
3.87734
3.87734
4.73272
4.73272
4.90521
4.90521
5.31604
5.31604
3.31099
3.31099
1838.56
1838.56
3.98754
3.98754
4.2472
4.2472
3.19957
3.19957
5.1518
5.1518
3.48932
3.48932
32.9103
32.9103
2.22444
2.22444
3.07855
3.07855
4.5934
4.5934
5.3082
5.3082
3.224
3.224
4.16117
4.16117
2.50868
2.50868
2.48024
5.63163
5.63163
5.47121
5.47121
3.90528
3.90528
3.14287
3.14287
5.27661
5.27661
1417.32
1417.32
4.34663
4.34663
2.99588
2.99588
4.03779
4.03779
2.98449
2.98449
3.55947
3.55947
3.00974
3.00974
5.22478
5.22478
5.4586
5.4586
3.02991
3.02991
4.34744
4.34744
5.47566
5.47566
3.99828
3.99828
1357.08
1357.08
4.58766
4.58766
5.32092
5.32092
4.77066
4.77066
3.94823
3.94823
4.13568
4.13568
3.16591
3.16591
4.11879
4.11879
1422.62
1422.62
1346.33
1346.33
4.27883
4.27883
744.839
744.839
5.62167
5.62167
1974.42
1974.42
3.01297
3.01297
441.812
441.812
2.97248
2.97248
3.14266
3.14266
4.09684
4.09684
4.18354
4.18354
5.33292
5.33292
3.81255
3.81255
4.43544
4.43544
5.35758
5.35758
3.65319
3.65319
3.09197
3.09197
3.70713
3.70713
1392.18
1392.18
3.18656
3.18656
5.4413
5.4413
3.67797
3.67797
4.6284
4.6284
3.86456
3.86456
5.37666
5.37666
3.29742
3.29742
5.33675
5.33675
4.60008
4.60008
4.02254
4.02254
4.7689
4.7689
4.15679
4.15679
217.388
217.388
3.24074
3.24074
3.54446
3.54446
3.50241
3.50241
1218.59
1218.59
5.3196
5.3196
5.10803
5.10803
3.56969
3.56969
3.13013
3.13013
4.27724
4.27724
4.15027
4.15027
3.73845
3.73845
3.78772
3.78772
3.48785
3.48785
4.98135
4.98135
3.25497
3.25497
5.43911
5.43911
3.96622
3.96622
966.511
966.511
4.66608
4.66608
3.34487
3.34487
1345
1345
3.02643
3.02643
3.01748
3.01748
4.47883
4.47883
37.2427
37.2427
3.78964
3.78964
1342.69
1342.69
5.57139
5.57139
4.84897
4.84897
5.39567
5.39567
2.88485
2.88485
5.4593
5.4593
4.01621
4.01621
5.16649
5.16649
5.26789
5.26789
4.17067
4.17067
3.36673
3.36673
5.46952
5.46952
2.85789
2.85789
3.83744
3.83744
4.32313
4.32313
2.86944
2.86944
2.9603
2.9603
5.39087
5.39087
3.10562
3.10562
4.46171
4.46171
4.71037
4.71037
3.6355
3.6355
4.11413
4.11413
3.68897
3.68897
4.77831
4.77831
2.81779
2.81779
3.9096
3.9096
959.772
959.772
977.117
4.00813
4.00813
5.68845
5.68845
3.52758
3.52758
3.79375
3.79375
1408.11
1408.11
5.14775
5.14775
3.47254
3.47254
4.16227
4.16227
2.8948
2.8948
5.02023
5.02023
4.02464
4.02464
2.84609
2.84609
5.47891
5.47891
4.79076
4.79076
3.03961
3.03961
3.17342
3.17342
5.22758
5.22758
4.56507
4.56507
5.60193
5.60193
6.45322
6.45322
2.81147
2.81147
3.29516
3.29516
3.11723
3.11723
517.595
517.595
5.38779
5.38779
3.00502
3.00502
5.60074
5.60074
3.8455
3.8455
5.47372
5.47372
5.36643
5.36643
3.95764
3.95764
4.88846
4.88846