/*--------------------------------*- C++ -*----------------------------------*\
  =========                 |
  \\      /  F ield         | OpenFOAM: The Open Source CFD Toolbox
   \\    /   O peration     | Website:  https://openfoam.org
    \\  /    A nd           | Version:  8
     \\/     M anipulation  |
\*---------------------------------------------------------------------------*/
FoamFile
{
    version     2.0;
    format      ascii;
    class       volScalarField;
    location    "0.15";
    object      p_rgh;
}
// * * * * * * * * * * * * * * * * * * * * * * * * * * * * * * * * * * * * * //

dimensions      [1 -1 -2 0 0 0 0];

internalField   nonuniform List<scalar> 
1924
(
234.647
502.094
6.47605
7.67873
6.11113
6.41464
6.40774
6.45828
6.5311
6.08446
6.54612
6.63486
12.5531
6.77323
7.35546
7.3558
6.17915
6.82731
950.236
6.95238
71.3807
7.20752
5.86909
7.00522
7.18837
7.26077
7.2826
374.283
6.2243
2324.07
6.22166
7.21377
4.53727
5.40017
6.61864
6.28519
7.26177
6.24222
2328.26
6.26583
7.26882
47.8389
7.25328
5.40782
2004.28
6.59008
1064.09
1997.41
278.173
6.30002
5.28706
42.2149
7.17928
5.06767
6.03593
5.87041
1219.99
1881.86
1512.95
7.29718
5.47192
7.34751
5.05407
2373.22
5.52794
1947.68
7.33322
6.56024
6.66527
4.75328
2.77258
7.34574
2359.21
2284.99
2266.84
4.67439
1658.94
2236.21
2075.25
5.24556
6.97128
7.28617
2365.18
31.312
-0.878818
6.64393
1537.6
7.33984
37.4439
2.41354
7.32731
7.27902
6.43034
6.29582
13.1565
5.51454
816.449
6.9249
7.29722
4.06353
6.41582
35.3001
7.29957
7.28453
6.66022
797.457
6.80852
6.64154
7.28448
6.55331
375.612
6.55317
6.07779
2343.6
2100.41
3.87895
6.60366
7.36799
6.79159
2050.53
-0.723122
1128.77
50.2136
3.43671
7.33954
6.93746
5.25505
2205.56
6.59097
1936.66
252.862
6.81378
4.5949
2332.9
46.3078
6.81347
6.12411
6.6077
7.09646
6.16457
889.245
7.34084
-36.46
6.36482
6.58011
2120.37
6.84906
3.10502
7.28482
6.76141
2460.9
1216.77
5.20112
6.90554
6.59378
7.05216
1606.87
6.23387
6.69145
2359.22
2329.25
4.85369
6.88319
1143.78
2436.84
6.98148
7.09967
1870.2
1569.25
6.92463
6.97978
6.66225
8.77339
7.28623
9.71802
7.50037
2340.25
3.48118
6.24868
6.97415
7.32542
7.37887
2208.47
7.16494
129.174
1194.55
6.17989
7.31077
72.4581
2269.48
7.03625
6.67868
37.3962
6.94066
7.18289
1159.22
7.30702
7.46782
7.37129
7.77467
4.98944
1031.94
7.02144
6.80004
7.16764
7.33089
7.03427
7.13965
3.77986
4.43541
913.93
6.91166
7.25583
7.22231
7.31697
2136.02
7.27411
7.13397
7.00852
2201.21
7.1368
2336.96
7.11708
7.27462
6.80711
7.31148
26.2599
7.25741
7.22884
7.65529
5.06817
7.31849
7.36911
4.12443
7.30693
2557.07
7.26013
7.10782
7.11165
944.006
7.38763
7.4115
7.23884
7.98561
1587.79
3.67663
6.94858
115.224
2199.27
7.44774
1529.28
1142.43
7.25433
7.06201
13.2562
7.33116
7.25297
7.38117
7.19825
7.09218
7.20199
7.17454
7.27708
2149.74
7.20147
2267.96
12.17
204.21
5.69327
914.979
7.53366
2413.14
5.96155
7.33964
7.31902
6.95865
6.96926
7.30954
7.01594
7.52993
1.88208
1455.64
7.31954
7.25787
160.072
2257.94
6.58388
1411.51
7.174
7.38359
7.16611
2316.23
7.30807
7.33851
5.22932
2417.19
7.33813
9.43027
1788.15
7.34259
1643.57
7.1264
7.2476
7.27392
7.07297
7.31325
6.5603
7.22805
7.35107
2132.64
12.4663
6.67065
7.27554
7.09001
8.08039
3.96241
7.24016
7.16593
7.20919
7.2429
2288.92
7.46746
7.07784
2407.33
7.29567
7.13164
7.35349
7.32111
8.62997
6.59054
7.46908
7.32734
7.0411
7.08412
2224.09
7.30897
7.30378
7.20338
7.27949
7.14419
7.16176
2388.62
7.13049
8.78322
7.36501
7.35754
6.08587
7.34529
6.65172
7.29813
7.21446
1020.63
2462.63
7.34933
35.7166
7.64453
970.036
7.24095
7.31265
5.58198
7.31029
7.3801
7.347
7.31701
7.19713
7.11332
7.09648
7.34414
7.29304
7.23862
7.24552
7.26815
7.28742
7.39973
7.25679
3.65701
7.37979
7.36679
7.15589
7.348
7.35264
7.03692
7.34054
7.26923
7.44424
7.22168
2248.52
7.31841
7.24655
7.17548
2441.54
7.02297
7.32539
7.33238
7.23808
4.5226
7.2229
7.13147
6.72629
7.36551
2132.48
678.582
7.70354
6.04608
1860.7
7.3028
7.08822
7.33634
7.27836
7.2103
7.30983
6.98015
7.24304
7.16081
7.2997
7.26267
7.09733
7.39531
6.74863
79.5306
7.39685
7.30512
7.04272
10.6094
7.1759
7.35328
8.27256
2330.85
7.07393
7.2608
7.30947
7.11448
7.27638
6.90019
7.26605
7.25473
7.34926
13.1215
7.21571
7.1558
7.39707
7.23243
7.286
2422.07
7.34794
1933.58
7.31219
1879.03
7.31843
7.31989
7.38108
7.04035
7.2866
6.77772
7.21975
7.31213
7.22172
7.3971
6.8556
7.35976
7.23235
7.11117
4.1517
6.79398
7.59021
7.32606
7.33563
7.3081
7.21258
2156.74
7.19252
6.97201
2281.89
7.19293
7.18089
7.24516
2367.86
7.2956
7.3526
7.37314
7.30865
7.2765
7.29267
7.33953
7.08461
7.17644
7.23971
7.40639
7.26695
9.61878
5.32987
7.25793
6.93562
6.37088
7.40702
7.12662
7.35571
7.30746
7.23006
2401.82
7.40833
7.3951
7.33296
7.13897
6.94483
7.26299
7.41628
7.20559
7.02736
7.33944
6.59688
7.13788
7.31175
7.29748
7.32386
7.32795
7.11724
7.3082
7.25938
7.36972
6.86525
7.41332
7.16288
7.32722
7.29897
7.30576
2240.99
5.80352
7.19183
7.31567
6.78681
7.3089
6.99586
6.55331
7.23921
7.33771
7.29209
7.17406
4.88235
7.16066
7.07004
2399.2
5.60042
5.20538
7.2094
7.24694
2322.25
2388.53
7.35026
6.97727
7.23798
7.29136
7.38394
6.93408
7.21695
6.63347
5.98132
5.52787
2412.72
2356.09
7.14278
6.83236
6.10992
7.29728
7.29911
6.77667
7.17016
6.24261
2296.84
7.04378
7.1829
7.26507
7.20518
7.3098
877.608
7.32576
6.30549
7.00852
7.40628
6.7382
7.10317
7.36231
7.25973
7.31475
5.66042
5.79192
7.43302
6.57971
7.18886
2381.13
7.17814
6.90186
1241.12
5.73164
5.71809
7.40365
7.33
6.85219
7.34167
6.75047
5.62194
7.42983
7.32093
2399.76
6.98977
7.32884
7.30206
7.42144
6.91779
6.57453
7.16325
7.40382
6.40185
7.32827
7.08128
7.35485
7.3058
7.22708
5.75965
2401.03
7.3082
7.17857
6.42327
7.12983
7.30305
2259.89
6.10508
7.35814
7.30314
6.59669
7.37565
7.22688
7.05507
6.68727
6.96124
5.72286
7.21671
2409.38
7.24596
7.2891
7.28174
7.295
7.03508
7.19322
7.25354
7.42213
7.11141
7.41773
7.25448
7.2218
6.8434
7.30048
6.10002
7.30885
6.2294
7.3124
6.77118
7.4444
7.18046
6.64768
6.79361
5.96558
2029.51
7.21723
7.31708
2387.02
7.15177
7.37212
6.9063
7.01026
7.07187
7.35
3.62837
7.20269
7.41778
7.19536
7.29582
7.3894
5.88619
6.42238
7.43986
7.4384
7.35199
7.33927
7.13614
7.31414
7.32742
2464.6
7.38769
6.07302
2371.16
7.32653
6.46258
7.20632
6.81453
7.44052
6.49416
12.8253
7.05052
7.10218
7.28621
6.66232
7.22711
6.59772
5.87523
7.23615
7.27979
7.19525
7.37842
6.96068
6.87855
5.9856
7.28587
2466.85
7.17035
7.3001
7.29834
6.74321
7.43599
42.2363
4.74459
7.36419
7.33093
6.27727
7.38558
5.08249
3.70098
5.88029
6.98966
7.27905
7.3036
6.61786
2424.34
7.08384
7.34331
7.15694
7.33165
7.25382
7.35723
6.68888
5.94977
7.31459
7.27561
5.58463
6.50605
2431.81
7.00659
6.35196
6.93497
7.25834
7.12751
7.25427
7.3015
2435.58
2418.41
7.31266
2336.24
5.93168
2336.36
7.3604
2287.82
7.31917
7.42132
7.27964
7.11172
6.4896
7.18632
7.04534
6.1496
7.21793
7.3772
7.20821
2409.91
7.28405
6.85295
7.43368
6.98367
7.17468
6.23017
7.27061
6.60987
7.22727
7.32427
6.47412
7.16686
2252.92
7.40131
7.23651
7.44908
2402.49
6.54064
6.76308
7.45271
7.28976
7.07811
7.26942
7.43051
4.30555
7.2448
6.82737
4.14978
7.01393
7.14903
2366.95
7.46749
7.42318
2426.61
7.37356
7.30136
7.02508
1103.79
7.35438
2417.14
5.68289
6.88596
6.37285
7.35605
6.07251
7.13536
6.8664
6.66833
7.31673
7.44072
6.14395
7.32872
7.33852
7.06034
7.34053
7.30633
6.43012
7.39017
7.45355
6.93833
7.20024
7.10597
7.19005
7.45093
7.351
7.28337
1237.29
6.61759
5.80975
7.21963
7.16752
1653.04
6.73915
7.22825
7.09044
7.36589
6.8026
7.32484
7.31649
6.27636
7.52797
7.38621
7.26943
6.69167
6.984
6.0344
9.03022
7.34464
7.43523
7.27556
2299.96
6.59725
7.28793
6.09445
7.15562
6.33288
6.53243
7.26776
6.8618
6.52747
7.33076
7.02366
2326.04
7.49919
6.52639
3.58754
7.24524
2401.33
6.91526
7.36294
2261.54
7.24648
7.12985
7.29325
6.71598
7.32093
7.33303
7.05795
7.37296
32.6337
7.43137
7.4545
7.45472
7.41341
7.37824
6.62357
7.40511
6.4396
2148.55
6.96301
6.01839
7.18356
7.11629
7.45551
6.20198
7.21242
7.45048
7.20344
2353.68
7.4021
4.42944
6.06576
7.304
6.25816
7.17314
7.00472
8.13367
9.28296
7.4005
7.0876
2434.61
7.32262
6.48316
7.39685
7.31802
7.33498
7.22975
7.04107
7.37455
7.15047
6.75791
7.27436
6.64552
7.35631
6.81653
7.23758
7.3087
7.56478
1.74881
7.30218
4.36053
5.94931
7.26141
7.07265
7.28001
6.35932
7.39061
6.67375
7.13859
2457.8
6.87155
7.34164
10.6756
6.55758
4.27966
6.40372
7.36788
2409.42
7.31449
6.92168
7.27301
6.15733
7.29137
7.43751
7.11329
7.19753
6.20623
7.53105
6.96672
8.37889
7.18836
7.4157
2381.01
7.24759
7.21518
7.32991
6.67245
7.38656
7.22314
6.61191
7.00664
7.16837
7.31816
7.1001
2456.3
2437.36
6.79478
7.12275
7.29632
7.31712
7.04179
6.85004
7.69582
6.73689
7.34603
7.35251
6.4876
7.15795
6.29539
6.69453
7.36403
6.90113
6.76603
7.40424
6.84518
7.44851
2463.84
7.07262
6.3389
7.37901
7.26097
7.4423
7.38193
7.26689
7.23892
6.94755
7.13561
7.46058
7.43329
7.46343
369.022
7.57143
7.45778
7.27872
6.9891
7.30629
2240.72
2375.33
2405.97
6.63455
7.36087
7.334
6.13424
6.17454
7.02596
6.9428
2422.76
7.124
6.55291
7.3996
7.32911
7.32246
7.37536
7.18394
7.30078
7.20971
7.20162
7.28392
7.05846
7.45204
6.4195
7.09961
7.00664
7.16937
7.17478
7.44647
7.31074
6.80926
7.22543
6.57691
6.86148
2434.59
6.45565
7.51166
7.41854
7.15506
7.28088
6.2517
7.39081
6.29122
7.08703
6.90989
7.23268
7.29435
6.07017
7.36844
6.95411
7.14484
2287.94
7.26629
6.99396
50.5524
6.49926
6.75457
7.35079
7.25409
7.38672
7.24132
7.02954
7.35719
2254.33
2319.59
7.12323
7.27169
7.41334
6.96489
7.29898
6.36433
6.84204
7.06111
6.678
1790.91
7.19749
5.48049
6.62274
7.21316
7.34266
7.18941
6.39899
7.33095
5.58004
5.65838
7.2062
6.49505
7.11208
7.46388
6.89125
7.172
7.22033
6.52405
7.37948
7.46221
7.43124
7.00717
7.28248
6.9366
6.31115
7.39047
7.36474
7.31965
7.40332
6.97781
6.78961
7.16301
7.41597
7.34413
6.26039
7.01485
7.37563
5.77263
6.22704
6.57044
7.08897
7.34971
7.14392
7.04789
2347.76
51.2006
7.28727
7.3092
7.39876
7.35345
7.42751
7.46271
6.4647
7.30825
2427.06
7.25426
7.23459
5.90226
7.52859
7.13408
184.5
6.32453
7.25981
7.2786
7.07718
7.45876
6.73552
6.64251
6.3564
7.29047
7.34681
7.27086
2472.9
2234.01
7.33502
7.3238
6.59066
7.39078
6.69679
7.2427
6.85484
6.17136
7.11355
7.20923
7.18673
7.58495
6.90203
7.20211
2454.99
2381.36
7.36887
2393.25
7.17881
6.9456
6.52347
7.31249
7.41623
7.27579
6.80453
7.29688
6.98528
7.16197
2475.73
7.28005
7.35786
7.02106
7.44128
6.41624
7.38668
7.64647
2391.45
7.37965
7.10298
7.46006
5.07885
4.79478
7.22314
7.1533
7.05307
2409.92
7.41127
6.44424
6.54342
5.5195
7.53674
7.45179
7.13516
7.22961
7.46722
7.36518
7.35422
7.37583
6.75233
7.30122
6.8375
7.4469
7.34344
7.28565
6.32781
6.30058
7.40245
7.08154
7.25967
6.88539
2422.91
7.24852
6.92993
7.34742
6.97075
7.32092
2465.57
7.40684
2485.65
2300.07
7.26469
7.33188
7.00775
6.02818
2492.07
7.12587
6.48396
6.62998
7.04099
6.78684
7.46627
7.19948
7.37937
6.3806
6.58221
7.30417
7.17767
7.39799
7.19252
6.68057
6.40627
4.93803
7.30988
7.35836
6.25343
7.33585
7.43654
7.21307
7.39056
7.2747
7.17005
7.34426
7.07065
7.32495
2450.37
7.29009
6.50292
7.3691
7.38653
7.23772
7.10682
2299.81
7.21935
7.15406
2426.33
7.42928
7.33261
7.26137
7.31394
2268.35
6.73468
7.37965
215.934
2247.23
2.96423
7.14586
7.46525
2183.08
6.53945
7.34808
7.27921
5.51501
7.36548
7.322
7.33647
7.09699
7.24912
2330.58
7.35494
7.46839
6.60069
7.29897
7.42411
6.6488
7.25416
7.23185
6.47833
7.45423
6.45514
7.41431
6.68362
7.26331
2382.68
6.69901
7.34449
6.1363
7.26419
7.32594
2402.64
7.30307
7.12895
7.37596
7.45813
5.19641
7.55966
7.33284
7.39019
7.33516
50.8999
51.0851
6.38019
2485.32
7.33625
6.35823
7.19127
7.40156
7.20434
7.3112
7.3973
7.26873
1090.79
7.2393
2350.15
2361.87
7.40959
7.38635
2509.44
7.5871
7.21045
6.55682
7.18459
6.80425
6.50357
6.85353
7.28824
6.3191
2491.02
2506.54
6.89984
7.44181
2467.1
7.3151
7.17052
2452.98
6.94271
7.3228
6.9819
7.43875
45.945
7.01735
7.12027
338.677
7.32695
7.34914
2046.6
7.56413
7.04918
7.22804
6.42314
7.29238
7.22245
7.35884
7.16332
7.37955
7.27782
7.03314
7.25431
6.75285
7.36923
2493.66
7.30062
7.46706
7.24439
6.4438
7.65043
6.22467
2506.95
7.07756
7.45369
7.46534
7.25882
7.14839
7.30452
6.51916
7.31216
7.28197
7.47764
7.45992
7.40071
6.47618
7.3379
7.39289
7.3164
7.38974
7.39671
7.26785
6.70228
7.23542
7.20296
6.65257
7.29027
7.43663
7.2865
7.35516
7.4679
7.40821
7.10278
7.37595
7.21979
7.19711
6.60519
7.24522
7.14066
7.36575
7.27198
2460.48
7.23043
7.33302
7.21444
7.42621
7.24965
7.38607
2516.9
7.41266
2538.16
7.42138
6.48922
7.29415
2406.93
7.3529
7.32567
7.37226
7.18478
2539.73
7.23705
7.30185
2541.84
6.37068
6.29586
2.88795
7.2585
7.46835
7.46302
2515.2
7.46705
7.47016
6.56195
7.28025
6.40243
7.24991
7.22764
7.30607
7.24137
7.17847
6.41988
7.45808
7.12495
7.26256
7.22294
7.46674
7.2129
2536.95
6.78647
7.39985
2490.85
6.83652
7.27069
6.88378
7.25384
7.41123
6.92777
7.2841
7.3154
6.96816
7.24224
7.47047
6.52476
7.00484
7.03786
7.20781
7.01198
7.24599
7.40707
7.16537
7.23409
7.39605
2437.51
44.1179
38.3479
7.06739
7.19704
7.29178
7.26173
7.37679
7.22999
2570.59
7.35657
7.22123
7.25351
7.36706
6.49524
6.4544
2525.33
7.09367
7.38654
7.27447
6.35225
7.46746
7.23562
7.24617
7.46812
7.21682
6.73493
6.68426
7.29596
7.26539
6.63558
7.41923
7.14443
7.23913
7.15851
2508.89
7.33386
7.32961
7.30533
6.47106
7.45816
7.42375
7.24945
7.25701
7.44834
7.46949
7.20747
7.43768
7.22803
6.58976
7.4481
7.47023
7.19155
6.46767
7.46615
7.11686
7.43299
2396.1
2464.54
2521.46
7.46893
7.22424
7.23985
7.25612
7.31961
7.26408
2561.91
6.41007
7.39062
7.24286
7.43452
7.42174
7.2162
7.46513
7.24901
7.39613
7.20271
7.2953
7.36173
7.42812
6.54878
7.28204
7.4701
7.23339
7.46117
7.18009
7.4175
7.27277
7.40993
2561.18
7.4439
7.13725
6.51448
7.23019
7.38052
6.39583
7.44453
7.2523
7.25968
7.35378
7.22333
7.30945
7.2954
7.43011
7.45822
7.36066
7.4718
7.21212
7.37092
7.4528
7.24286
2501.72
7.23467
7.40591
7.23734
7.47093
7.19275
7.45361
6.47449
6.48851
7.44053
2552.76
7.28614
7.45324
7.46684
7.46311
7.24585
7.26787
7.3902
7.46645
7.43207
7.21987
7.46135
7.22894
7.46982
2583.11
2584.76
7.23777
7.45681
7.46917
6.43498
8.19323
7.25989
7.29948
7.4419
7.42
7.25274
7.45001
7.16145
7.15511
7.24042
7.23301
7.22608
7.20353
7.46864
7.47094
7.17403
7.47313
7.26786
7.24652
7.2338
6.4485
7.23081
7.45077
7.21256
2549.59
2530.93
7.42789
7.23607
7.46503
7.40556
7.39969
7.43799
7.46017
7.27673
7.46397
7.19888
7.46773
7.45804
7.2413
7.47287
7.21996
7.46107
7.18743
7.25581
7.46938
7.26327
7.28575
7.28974
7.45817
7.46335
7.44745
7.47382
7.22583
7.41573
7.24925
7.23708
7.23024
7.18897
7.19982
7.19558
7.43
6.42805
7.4398
7.24368
7.23289
7.45576
7.46871
7.47423
7.41791
7.41475
7.42372
7.27653
7.47348
7.2715
7.23912
7.4663
7.44903
7.46348
7.20853
7.47485
7.23558
7.23393
7.23137
7.45719
7.46369
7.2165
7.42545
7.46236
7.2229
7.4745
7.47204
7.22786
7.42682
7.45622
7.45736
7.46234
7.46796
7.46004
2556.67
2572.43
7.46837
2571.8
7.46757
2583.82
7.21333
7.21643
7.28037
7.20893
7.20528
7.18409
7.22244
7.21985
7.17065
7.17624
7.44095
7.44308
7.40895
7.4506
7.44895
7.43501
7.43247
7.46311
7.23263
7.23181
7.2305
7.22881
7.22497
7.22712
7.42661
7.46538
2164.49
7.45279
7.43504
7.44429
6.4385
6.44975
2451.02
800.765
2369.86
6.46075
6.45715
6.95569
5.16974
6.46699
6.45652
1511.93
2110.63
2349.48
2379.12
6.46368
2244.24
6.94887
494.133
2438.86
7.10294
1776.4
1.45555
7.94468
2408.99
5.62965
5.53175
1061.5
1050.6
-924.06
982.869
627.295
1172.79
2446.55
2325.62
2261.76
50.2142
51.4291
51.3245
2088.5
7.60291
6.90475
48.9187
-0.279327
-1.33024
2286.99
2372.71
1061.34
1090.93
1721.27
70.4705
2122.89
2340.92
48.5742
1281.43
1024.64
821.625
857.482
918.711
1118.35
3151.73
2807.36
2461.24
7.51988
68.7945
254.11
610.201
51.0406
-1.48775
51.2196
44.7896
49.7297
7.32509
50.0673
44.0226
2.94396
51.4364
121.608
49.5072
5.89517
48.5316
7.04962
2.92488
7.27246
5.64468
46.9448
7.09436
47.6947
136.387
48.1622
3.08805
7.12458
7.14205
-2.06392
56.6329
3073.22
7.09904
7.06623
141.467
7.09531
7.00831
-3.09759
6.99606
7.01345
1053.66
6.90868
1027.84
782.258
335.073
63.5494
6.89543
2391.97
2048.44
7.0702
)
;

boundaryField
{
    patch0
    {
        type            fixedFluxPressure;
        gradient        uniform 0;
        value           nonuniform List<scalar> 
4010
(
234.647
234.647
502.094
502.094
6.47605
6.47605
7.67873
7.67873
6.11113
6.11113
6.41464
6.41464
6.40774
6.40774
6.45828
6.45828
6.5311
6.5311
6.08446
6.08446
6.54612
6.54612
6.63486
6.63486
12.5531
12.5531
6.77323
6.77323
7.35546
7.35546
7.3558
7.3558
6.17915
6.17915
6.82731
6.82731
950.236
950.236
6.95238
6.95238
71.3807
71.3807
7.20752
7.20752
5.86909
5.86909
7.00522
7.00522
7.18837
7.18837
7.26077
7.26077
7.2826
7.2826
374.283
374.283
6.2243
6.2243
2324.07
2324.07
6.22166
6.22166
7.21377
7.21377
4.53727
4.53727
5.40017
5.40017
6.61864
6.61864
6.28519
6.28519
7.26177
7.26177
6.24222
6.24222
2328.26
2328.26
6.26583
6.26583
7.26882
7.26882
47.8389
47.8389
7.25328
7.25328
5.40782
5.40782
2004.28
2004.28
6.59008
6.59008
1064.09
1064.09
1997.41
1997.41
278.173
278.173
6.30002
6.30002
5.28706
5.28706
42.2149
42.2149
7.17928
7.17928
5.06767
5.06767
6.03593
6.03593
5.87041
5.87041
1219.99
1219.99
1881.86
1881.86
1512.95
1512.95
7.29718
7.29718
5.47192
5.47192
7.34751
7.34751
5.05407
5.05407
2373.22
2373.22
5.52794
5.52794
1947.68
1947.68
7.33322
7.33322
6.56024
6.56024
6.66527
6.66527
4.75328
4.75328
2.77258
2.77258
7.34574
7.34574
2359.21
2359.21
2284.99
2284.99
2266.84
2266.84
4.67439
4.67439
1658.94
1658.94
2236.21
2236.21
2075.25
2075.25
5.24556
5.24556
6.97128
6.97128
7.28617
7.28617
2365.18
2365.18
31.312
31.312
-0.878818
-0.878818
6.64393
6.64393
1537.6
1537.6
7.33984
7.33984
37.4439
37.4439
2.41354
2.41354
7.32731
7.32731
7.27902
7.27902
6.43034
6.43034
6.29582
6.29582
13.1565
13.1565
5.51454
5.51454
816.449
816.449
6.9249
6.9249
7.29722
7.29722
4.06353
4.06353
6.41582
6.41582
35.3001
35.3001
7.29957
7.29957
7.28453
7.28453
6.66022
6.66022
797.457
797.457
6.80852
6.80852
6.64154
6.64154
7.28448
7.28448
6.55331
6.55331
375.612
375.612
6.55317
6.55317
6.07779
6.07779
2343.6
2343.6
2100.41
2100.41
3.87895
3.87895
6.60366
6.60366
7.36799
7.36799
6.79159
6.79159
2050.53
2050.53
-0.723122
-0.723122
1128.77
1128.77
50.2136
50.2136
3.43671
3.43671
7.33954
7.33954
6.93746
6.93746
5.25505
5.25505
2205.56
2205.56
6.59097
6.59097
1936.66
1936.66
252.862
252.862
6.81378
6.81378
4.5949
4.5949
2332.9
2332.9
46.3078
46.3078
6.81347
6.81347
6.12411
6.12411
6.6077
6.6077
7.09646
7.09646
6.16457
6.16457
889.245
889.245
7.34084
7.34084
-36.46
-36.46
-36.46
6.36482
6.36482
6.36482
6.58011
6.58011
2120.37
2120.37
6.84906
6.84906
3.10502
3.10502
7.28482
7.28482
6.76141
6.76141
2460.9
2460.9
1216.77
1216.77
1216.77
5.20112
5.20112
6.90554
6.90554
6.59378
6.59378
7.05216
7.05216
1606.87
1606.87
6.23387
6.23387
6.69145
6.69145
2359.22
2359.22
2329.25
2329.25
4.85369
4.85369
6.88319
6.88319
1143.78
1143.78
2436.84
2436.84
6.98148
6.98148
7.09967
7.09967
1870.2
1870.2
1569.25
1569.25
6.92463
6.92463
6.97978
6.97978
6.66225
6.66225
8.77339
8.77339
7.28623
7.28623
9.71802
9.71802
7.50037
7.50037
2340.25
2340.25
3.48118
3.48118
6.24868
6.24868
6.97415
6.97415
7.32542
7.32542
7.37887
7.37887
2208.47
2208.47
7.16494
7.16494
129.174
129.174
1194.55
1194.55
6.17989
6.17989
7.31077
7.31077
72.4581
72.4581
2269.48
2269.48
7.03625
7.03625
6.67868
6.67868
37.3962
37.3962
6.94066
6.94066
7.18289
7.18289
1159.22
1159.22
1159.22
7.30702
7.30702
7.46782
7.46782
7.37129
7.37129
7.77467
7.77467
4.98944
4.98944
1031.94
1031.94
7.02144
7.02144
6.80004
6.80004
7.16764
7.16764
7.33089
7.33089
7.03427
7.03427
7.13965
7.13965
3.77986
3.77986
4.43541
4.43541
4.43541
913.93
913.93
6.91166
6.91166
7.25583
7.25583
7.22231
7.22231
7.31697
7.31697
2136.02
2136.02
7.27411
7.27411
7.13397
7.13397
7.00852
7.00852
2201.21
2201.21
7.1368
7.1368
2336.96
2336.96
7.11708
7.11708
7.27462
7.27462
6.80711
6.80711
7.31148
7.31148
26.2599
26.2599
7.25741
7.25741
7.22884
7.22884
7.65529
7.65529
5.06817
5.06817
7.31849
7.31849
7.36911
7.36911
4.12443
4.12443
7.30693
7.30693
2557.07
2557.07
2557.07
7.26013
7.26013
7.10782
7.10782
7.11165
7.11165
944.006
944.006
944.006
7.38763
7.38763
7.4115
7.4115
7.23884
7.23884
7.98561
7.98561
1587.79
1587.79
3.67663
3.67663
6.94858
6.94858
115.224
115.224
2199.27
2199.27
7.44774
7.44774
1529.28
1529.28
1142.43
1142.43
7.25433
7.25433
7.06201
7.06201
13.2562
13.2562
7.33116
7.33116
7.25297
7.25297
7.38117
7.38117
7.19825
7.19825
7.09218
7.09218
7.20199
7.20199
7.17454
7.17454
7.27708
7.27708
2149.74
2149.74
7.20147
7.20147
2267.96
2267.96
12.17
12.17
204.21
204.21
5.69327
5.69327
914.979
914.979
7.53366
7.53366
2413.14
2413.14
5.96155
5.96155
7.33964
7.33964
7.31902
7.31902
6.95865
6.95865
6.96926
6.96926
7.30954
7.30954
7.01594
7.01594
7.52993
7.52993
1.88208
1.88208
1455.64
1455.64
1455.64
7.31954
7.31954
7.25787
7.25787
160.072
160.072
2257.94
2257.94
6.58388
6.58388
1411.51
1411.51
7.174
7.174
7.38359
7.38359
7.16611
7.16611
2316.23
2316.23
7.30807
7.30807
7.33851
7.33851
5.22932
5.22932
2417.19
2417.19
7.33813
7.33813
9.43027
9.43027
1788.15
1788.15
7.34259
7.34259
1643.57
1643.57
1643.57
7.1264
7.1264
7.2476
7.2476
7.27392
7.27392
7.07297
7.07297
7.31325
7.31325
6.5603
6.5603
7.22805
7.22805
7.35107
7.35107
2132.64
2132.64
12.4663
12.4663
6.67065
6.67065
7.27554
7.27554
7.09001
7.09001
8.08039
8.08039
3.96241
3.96241
7.24016
7.24016
7.16593
7.16593
7.20919
7.20919
7.2429
7.2429
2288.92
2288.92
7.46746
7.46746
7.07784
7.07784
2407.33
2407.33
7.29567
7.29567
7.13164
7.13164
7.35349
7.35349
7.32111
7.32111
8.62997
8.62997
6.59054
6.59054
7.46908
7.46908
7.32734
7.32734
7.0411
7.0411
7.08412
7.08412
2224.09
2224.09
7.30897
7.30897
7.30378
7.30378
7.20338
7.20338
7.27949
7.27949
7.14419
7.14419
7.16176
7.16176
2388.62
2388.62
7.13049
7.13049
8.78322
8.78322
7.36501
7.36501
7.35754
7.35754
6.08587
6.08587
7.34529
7.34529
6.65172
6.65172
7.29813
7.29813
7.21446
7.21446
1020.63
1020.63
2462.63
2462.63
7.34933
7.34933
35.7166
35.7166
7.64453
7.64453
970.036
970.036
7.24095
7.24095
7.31265
7.31265
5.58198
5.58198
7.31029
7.31029
7.3801
7.3801
7.347
7.347
7.31701
7.31701
7.19713
7.19713
7.11332
7.11332
7.09648
7.09648
7.34414
7.34414
7.29304
7.29304
7.23862
7.23862
7.24552
7.24552
7.26815
7.26815
7.28742
7.28742
7.39973
7.39973
7.25679
7.25679
3.65701
3.65701
7.37979
7.37979
7.36679
7.36679
7.15589
7.15589
7.348
7.348
7.35264
7.35264
7.03692
7.03692
7.34054
7.34054
7.26923
7.26923
7.44424
7.44424
7.22168
7.22168
2248.52
2248.52
7.31841
7.31841
7.24655
7.24655
7.17548
7.17548
2441.54
2441.54
7.02297
7.02297
7.32539
7.32539
7.33238
7.33238
7.23808
7.23808
4.5226
4.5226
4.5226
7.2229
7.2229
7.13147
7.13147
6.72629
6.72629
7.36551
7.36551
2132.48
2132.48
678.582
678.582
7.70354
7.70354
6.04608
6.04608
1860.7
1860.7
1860.7
7.3028
7.3028
7.08822
7.08822
7.33634
7.33634
7.27836
7.27836
7.2103
7.2103
7.30983
7.30983
6.98015
6.98015
7.24304
7.24304
7.16081
7.16081
7.2997
7.2997
7.26267
7.26267
7.09733
7.09733
7.39531
7.39531
6.74863
6.74863
79.5306
79.5306
7.39685
7.39685
7.30512
7.30512
7.04272
7.04272
10.6094
10.6094
7.1759
7.1759
7.35328
7.35328
8.27256
8.27256
2330.85
2330.85
7.07393
7.07393
7.2608
7.2608
7.30947
7.30947
7.11448
7.11448
7.27638
7.27638
6.90019
6.90019
7.26605
7.26605
7.25473
7.25473
7.34926
7.34926
13.1215
13.1215
7.21571
7.21571
7.1558
7.1558
7.39707
7.39707
7.23243
7.23243
7.286
7.286
2422.07
2422.07
7.34794
7.34794
1933.58
1933.58
1933.58
7.31219
7.31219
1879.03
1879.03
7.31843
7.31843
7.31989
7.31989
7.38108
7.38108
7.04035
7.04035
7.2866
7.2866
6.77772
6.77772
7.21975
7.21975
7.31213
7.31213
7.22172
7.22172
7.3971
7.3971
6.8556
6.8556
7.35976
7.35976
7.23235
7.23235
7.11117
7.11117
4.1517
4.1517
6.79398
6.79398
7.59021
7.59021
7.32606
7.32606
7.33563
7.33563
7.3081
7.3081
7.21258
7.21258
2156.74
2156.74
7.19252
7.19252
6.97201
6.97201
2281.89
2281.89
7.19293
7.19293
7.18089
7.18089
7.24516
7.24516
2367.86
2367.86
7.2956
7.2956
7.3526
7.3526
7.37314
7.37314
7.30865
7.30865
7.2765
7.2765
7.29267
7.29267
7.33953
7.33953
7.08461
7.08461
7.17644
7.17644
7.23971
7.23971
7.40639
7.40639
7.26695
7.26695
9.61878
9.61878
5.32987
5.32987
7.25793
7.25793
6.93562
6.93562
6.37088
6.37088
7.40702
7.40702
7.12662
7.12662
7.35571
7.35571
7.30746
7.30746
7.23006
7.23006
2401.82
2401.82
7.40833
7.40833
7.3951
7.3951
7.33296
7.33296
7.13897
7.13897
6.94483
6.94483
7.26299
7.26299
7.41628
7.41628
7.20559
7.20559
7.02736
7.02736
7.33944
7.33944
6.59688
6.59688
7.13788
7.13788
7.31175
7.31175
7.29748
7.29748
7.32386
7.32386
7.32795
7.32795
7.11724
7.11724
7.3082
7.3082
7.25938
7.25938
7.36972
7.36972
6.86525
6.86525
7.41332
7.41332
7.16288
7.16288
7.32722
7.32722
7.29897
7.29897
7.30576
7.30576
2240.99
2240.99
5.80352
5.80352
7.19183
7.19183
7.31567
7.31567
6.78681
6.78681
7.3089
7.3089
6.99586
6.99586
6.55331
6.55331
7.23921
7.23921
7.33771
7.33771
7.29209
7.29209
7.17406
7.17406
4.88235
4.88235
7.16066
7.16066
7.07004
7.07004
2399.2
2399.2
5.60042
5.60042
5.20538
5.20538
7.2094
7.2094
7.24694
7.24694
2322.25
2322.25
2388.53
2388.53
7.35026
7.35026
6.97727
6.97727
7.23798
7.23798
7.29136
7.29136
7.38394
7.38394
6.93408
6.93408
7.21695
7.21695
6.63347
6.63347
5.98132
5.98132
5.52787
5.52787
2412.72
2412.72
2356.09
2356.09
7.14278
7.14278
6.83236
6.83236
6.10992
6.10992
7.29728
7.29728
7.29911
7.29911
6.77667
6.77667
7.17016
7.17016
6.24261
6.24261
2296.84
2296.84
7.04378
7.04378
7.1829
7.1829
7.26507
7.26507
7.20518
7.20518
7.3098
7.3098
877.608
877.608
7.32576
7.32576
6.30549
6.30549
7.00852
7.00852
7.40628
7.40628
6.7382
6.7382
7.10317
7.10317
7.36231
7.36231
7.25973
7.25973
7.31475
7.31475
5.66042
5.66042
5.79192
5.79192
7.43302
7.43302
6.57971
6.57971
7.18886
7.18886
2381.13
2381.13
7.17814
7.17814
6.90186
6.90186
1241.12
1241.12
5.73164
5.73164
5.71809
5.71809
7.40365
7.40365
7.33
7.33
6.85219
6.85219
7.34167
7.34167
6.75047
6.75047
5.62194
5.62194
7.42983
7.42983
7.32093
7.32093
2399.76
2399.76
6.98977
6.98977
7.32884
7.32884
7.30206
7.30206
7.42144
7.42144
6.91779
6.91779
6.57453
6.57453
7.16325
7.16325
7.40382
7.40382
6.40185
6.40185
7.32827
7.32827
7.08128
7.08128
7.35485
7.35485
7.3058
7.3058
7.22708
7.22708
5.75965
5.75965
2401.03
2401.03
7.3082
7.3082
7.17857
7.17857
6.42327
6.42327
7.12983
7.12983
7.30305
7.30305
2259.89
2259.89
6.10508
6.10508
7.35814
7.35814
7.30314
7.30314
6.59669
6.59669
7.37565
7.37565
7.22688
7.22688
7.05507
7.05507
6.68727
6.68727
6.96124
6.96124
5.72286
5.72286
7.21671
7.21671
2409.38
2409.38
7.24596
7.24596
7.2891
7.2891
7.28174
7.28174
7.295
7.295
7.03508
7.03508
7.19322
7.19322
7.25354
7.25354
7.42213
7.42213
7.11141
7.11141
7.41773
7.41773
7.25448
7.25448
7.2218
7.2218
6.8434
6.8434
7.30048
7.30048
6.10002
6.10002
7.30885
7.30885
6.2294
6.2294
7.3124
7.3124
6.77118
6.77118
7.4444
7.4444
7.18046
7.18046
6.64768
6.64768
6.79361
6.79361
5.96558
5.96558
2029.51
2029.51
7.21723
7.21723
7.31708
7.31708
2387.02
2387.02
7.15177
7.15177
7.37212
7.37212
6.9063
6.9063
7.01026
7.01026
7.07187
7.07187
7.35
7.35
3.62837
3.62837
7.20269
7.20269
7.41778
7.41778
7.19536
7.19536
7.29582
7.29582
7.3894
7.3894
5.88619
5.88619
6.42238
6.42238
7.43986
7.43986
7.4384
7.4384
7.35199
7.35199
7.33927
7.33927
7.13614
7.13614
7.31414
7.31414
7.32742
7.32742
2464.6
2464.6
7.38769
7.38769
6.07302
6.07302
2371.16
2371.16
7.32653
7.32653
6.46258
6.46258
7.20632
7.20632
6.81453
6.81453
7.44052
7.44052
6.49416
6.49416
12.8253
12.8253
7.05052
7.05052
7.10218
7.10218
7.28621
7.28621
6.66232
6.66232
7.22711
7.22711
6.59772
6.59772
5.87523
5.87523
7.23615
7.23615
7.27979
7.27979
7.19525
7.19525
7.37842
7.37842
6.96068
6.96068
6.87855
6.87855
5.9856
5.9856
7.28587
7.28587
2466.85
2466.85
7.17035
7.17035
7.3001
7.3001
7.29834
7.29834
6.74321
6.74321
7.43599
7.43599
42.2363
42.2363
4.74459
4.74459
7.36419
7.36419
7.33093
7.33093
6.27727
6.27727
7.38558
7.38558
5.08249
5.08249
3.70098
3.70098
3.70098
5.88029
5.88029
6.98966
6.98966
7.27905
7.27905
7.3036
7.3036
6.61786
6.61786
2424.34
2424.34
7.08384
7.08384
7.34331
7.34331
7.15694
7.15694
7.33165
7.33165
7.25382
7.25382
7.35723
7.35723
6.68888
6.68888
5.94977
5.94977
7.31459
7.31459
7.27561
7.27561
5.58463
5.58463
6.50605
6.50605
2431.81
2431.81
7.00659
7.00659
6.35196
6.35196
6.93497
6.93497
7.25834
7.25834
7.12751
7.12751
7.25427
7.25427
7.3015
7.3015
2435.58
2435.58
2418.41
2418.41
7.31266
7.31266
2336.24
2336.24
5.93168
5.93168
2336.36
2336.36
7.3604
7.3604
2287.82
2287.82
7.31917
7.31917
7.42132
7.42132
7.27964
7.27964
7.11172
7.11172
6.4896
6.4896
7.18632
7.18632
7.04534
7.04534
6.1496
6.1496
7.21793
7.21793
7.3772
7.3772
7.20821
7.20821
2409.91
2409.91
7.28405
7.28405
6.85295
6.85295
7.43368
7.43368
6.98367
6.98367
7.17468
7.17468
6.23017
6.23017
7.27061
7.27061
6.60987
6.60987
7.22727
7.22727
7.32427
7.32427
6.47412
6.47412
7.16686
7.16686
2252.92
2252.92
7.40131
7.40131
7.23651
7.23651
7.44908
7.44908
2402.49
2402.49
6.54064
6.54064
6.76308
6.76308
7.45271
7.45271
7.28976
7.28976
7.07811
7.07811
7.26942
7.26942
7.43051
7.43051
4.30555
4.30555
7.2448
7.2448
6.82737
6.82737
4.14978
4.14978
7.01393
7.01393
7.14903
7.14903
2366.95
2366.95
7.46749
7.46749
7.42318
7.42318
2426.61
2426.61
7.37356
7.37356
7.30136
7.30136
7.02508
7.02508
1103.79
1103.79
7.35438
7.35438
2417.14
2417.14
5.68289
5.68289
6.88596
6.88596
6.37285
6.37285
7.35605
7.35605
6.07251
6.07251
7.13536
7.13536
6.8664
6.8664
6.66833
6.66833
7.31673
7.31673
7.44072
7.44072
6.14395
6.14395
7.32872
7.32872
7.33852
7.33852
7.06034
7.06034
7.34053
7.34053
7.30633
7.30633
6.43012
6.43012
7.39017
7.39017
7.45355
7.45355
6.93833
6.93833
7.20024
7.20024
7.10597
7.10597
7.19005
7.19005
7.45093
7.45093
7.351
7.351
7.28337
7.28337
1237.29
1237.29
1237.29
6.61759
6.61759
5.80975
5.80975
7.21963
7.21963
7.16752
7.16752
1653.04
1653.04
6.73915
6.73915
7.22825
7.22825
7.09044
7.09044
7.36589
7.36589
6.8026
6.8026
7.32484
7.32484
7.31649
7.31649
6.27636
6.27636
7.52797
7.52797
7.38621
7.38621
7.26943
7.26943
6.69167
6.69167
6.984
6.984
6.0344
6.0344
9.03022
9.03022
7.34464
7.34464
7.43523
7.43523
7.27556
7.27556
2299.96
2299.96
6.59725
6.59725
7.28793
7.28793
6.09445
6.09445
7.15562
7.15562
6.33288
6.33288
6.53243
6.53243
7.26776
7.26776
6.8618
6.8618
6.52747
6.52747
7.33076
7.33076
7.02366
7.02366
2326.04
2326.04