/*--------------------------------*- C++ -*----------------------------------*\
  =========                 |
  \\      /  F ield         | OpenFOAM: The Open Source CFD Toolbox
   \\    /   O peration     | Website:  https://openfoam.org
    \\  /    A nd           | Version:  8
     \\/     M anipulation  |
\*---------------------------------------------------------------------------*/
FoamFile
{
    version     2.0;
    format      ascii;
    class       surfaceScalarField;
    location    "0.15";
    object      phi;
}
// * * * * * * * * * * * * * * * * * * * * * * * * * * * * * * * * * * * * * //

dimensions      [0 3 -1 0 0 0 0];

internalField   nonuniform List<scalar> 
2805
(
-0.00270443
0.00125096
0.00145347
-0.000927518
-0.00177692
-0.000454526
0.00076752
-0.000312994
-0.000356159
-9.83667e-05
-0.00125519
0.000327676
0.0001331
-0.000489259
0.000227142
-9.40421e-05
0.000969404
-0.000742262
0.000632822
0.000336582
0.000432019
0.000335502
0.00159975
-0.000966925
0.000421623
0.00117812
0.00459785
-0.00237043
-0.00222742
0.00159906
-0.00117744
-0.000539016
-0.000296279
0.000835295
-0.000795249
0.000256233
0.00229324
0.00230461
0.000339559
0.0012595
-0.000960842
0.0022118
0.00126586
-0.000926296
0.0033618
0.00204709
-0.00540889
0.000749833
-0.00049624
-0.000253593
-0.00164017
0.000859568
0.000780604
0.000120671
0.00114518
0.000429924
0.000319909
6.08972e-05
-0.0005645
0.000503603
0.000709171
-0.000648274
-0.000649428
-0.00110533
0.00175476
0.000686928
-8.50284e-05
-0.0006019
-6.65275e-05
-0.00125898
0.0013255
-0.00146069
-0.000179479
-0.000190734
0.000620658
0.000440451
0.00141868
-0.00185913
0.00161873
0.000674511
-0.0016429
0.000993473
-0.000561072
0.00142064
0.000646031
-0.000836765
-0.000224902
0.00091183
0.00110203
-0.00116856
0.000158037
0.000692721
-4.66905e-05
0.0051127
-0.0017509
0.000128221
0.0020189
-0.00123829
-0.000158079
0.00114037
-0.000982289
0.0034579
0.000518994
-0.0039769
0.00205009
-0.00192951
-0.000120577
0.00135069
-0.000562382
-0.00078831
0.0027744
-0.00404871
0.00127431
-0.00441178
0.00271481
0.00169697
0.00215077
-0.00132134
-0.000829431
0.00274227
-0.00067804
0.0001818
0.000271504
0.00187927
0.00235144
-0.00283415
0.000482706
-0.00121088
0.00108925
0.00119261
-0.000303645
0.00149626
-0.000464409
-7.81954e-05
0.000542604
0.00163885
0.000380042
-0.00044752
-0.000347729
0.00191456
-0.000275711
-0.00127983
0.000873078
0.000406754
0.00110457
-0.00083307
-0.0014313
0.000868923
-0.000531358
0.00058629
-5.49318e-05
0.000752607
-0.00131368
0.00337288
-0.00221085
0.000889506
2.22275e-05
-0.000212211
0.000189983
-0.000836784
0.000389265
-0.000177803
-0.0015473
0.000288326
-0.00113712
-0.000410179
0.000497466
-0.00162886
0.0011314
-0.000944079
-0.000487226
-0.00149276
0.000355635
-0.00172194
0.00093363
-0.000296283
-0.000754396
-0.000676488
0.00143088
0.000614086
9.50843e-05
-0.00122197
0.000631139
0.000590834
0.00415512
-0.00210803
0.00189392
0.000714535
3.80712e-05
-0.00140897
-0.000897727
0.000601448
-0.00163738
0.00104157
-0.00101934
-0.000702227
0.000170869
0.000618023
-3.93674e-06
0.00287043
0.00154937
-0.000773743
-0.000775626
-0.00211411
0.00315568
-6.24967e-05
0.00116707
-0.00170825
0.000764175
0.000628285
-0.00138268
-0.000140233
-0.000324175
-0.000647175
0.00114464
0.00136473
-0.000484409
-0.000880324
0.00204101
0.00030713
-0.000447364
0.000515371
0.000102652
0.000356914
0.00119246
-0.00161198
0.00140614
0.000205847
0.00272888
-0.00284962
0.000120738
0.000661736
-0.000304822
0.000370431
-0.000448627
0.00209669
-0.0018206
0.000112344
0.000403638
0.00296924
-0.0014801
0.000451662
-0.00120735
0.000755684
-0.00130695
-0.000414987
0.000186178
-0.00229421
0.00105174
0.000734582
-0.00047835
0.000447246
-0.000238392
-0.000208854
-0.00179418
0.00106754
0.000826387
-0.00446812
0.00439472
7.33935e-05
-0.00269408
-0.000833162
0.000282364
0.000303926
-0.000676802
0.00115365
-0.000476843
-0.00148869
-0.000140174
-0.00021522
-0.00127754
0.00250033
-0.00132803
0.00355597
-0.00222794
-0.0014834
-0.000337194
0.00224447
-0.00104518
0.000117131
0.000928044
-0.000770311
0.00478328
0.00174172
-0.000549269
-0.000119616
0.00103145
-0.000906386
0.00102706
-0.000486624
-0.000540052
-0.00055442
0.00152328
-0.00152328
-0.00473854
0.00473854
0.0016642
-0.000612459
-0.00216432
0.000836282
-1.50667e-05
-0.000859386
-0.000118798
0.000489229
0.000207264
0.000239982
0.000191093
0.000440046
-0.00446812
-0.000577986
-0.000910704
0.00240705
-0.000162573
0.00117494
0.00089321
0.000260435
0.00402756
0.000367164
0.000151122
-0.00162211
0.00013871
-0.00103622
0.000197894
0.000838323
-0.000341275
-0.000866071
8.62233e-05
0.00179459
-0.00451026
4.21483e-05
-0.000726465
0.000596339
0.000130126
0.00126488
0.00119975
-0.000306536
0.00145695
0.00257061
-0.00137936
-0.000414823
0.00195106
0.000274223
0.00114446
0.00191415
-0.000739207
-0.00120769
-0.000404295
0.000191195
-0.00175093
0.00123413
8.10113e-06
-0.00124223
0.000984228
-0.00126177
0.00145176
0.00100397
0.000416667
0.00219185
-0.000397266
0.00104472
-0.000863013
-0.000181707
0.000200078
0.000534505
-0.00147522
0.00102727
0.000447954
0.000978193
0.000221553
-0.00204169
-0.00200702
2.2159e-05
-0.00195167
-0.00125661
0.000678627
-0.00082721
0.000914117
-8.69064e-05
-0.00171655
-0.0013156
0.000449525
0.000712651
-0.000727717
0.00117188
-0.00135455
-0.000267562
0.00145265
0.0010328
-5.46041e-05
-0.00451026
-0.000784514
0.00075987
2.4644e-05
0.000938127
0.000296
0.00112951
-0.000191385
0.0016071
-0.0013111
-0.00659768
0.00151334
-0.000248463
-0.00085678
0.00202866
0.000217509
0.00200923
-0.000556585
0.0014539
-0.00271051
-0.00177009
0.000117131
-0.00460033
9.00629e-05
0.0020718
-0.000752137
0.00116128
-0.000409141
0.000963269
6.95282e-05
0.000129603
0.00119092
0.000327252
-0.00044605
0.000720752
0.00115245
-0.00126237
-1.51717e-05
0.000981186
-0.000445383
0.00120681
0.000219311
-0.000971448
0.00106174
0.000723484
3.63856e-05
-0.00121264
-0.000141909
0.00128369
-0.0016433
0.000359608
0.000812495
0.000150774
0.000631813
0.000975283
-0.0019061
-0.000928044
0.000264669
0.000244817
-0.000509486
0.000266499
0.000599039
0.000124445
0.000197894
0.00106678
9.44957e-05
0.00177365
-0.000621194
0.00122762
-2.08072e-05
-0.00460033
0.000625447
-0.000425369
0.00104601
-0.000828502
0.00124833
-0.000181547
-0.000329725
0.00178362
0.00197869
-0.000838323
0.00138559
-0.000917209
0.00197895
-0.000986759
-0.00111959
7.60026e-05
-0.000455416
-0.00306592
-0.00153441
0.000886695
-7.42002e-05
0.00182334
-0.00128238
-0.000434169
-0.00072711
0.000946421
0.000452633
5.09698e-05
-0.000313698
0.00098409
-0.000670392
0.000789801
0.000856437
0.00101135
0.00117301
-0.000167005
0.0003582
7.13294e-05
0.000419147
0.000201511
0.000841122
-0.0012513
0.00149289
-0.00324379
0.000984897
-0.00138919
0.000568929
0.0014027
0.00139293
-0.000761117
-0.000535371
-0.00283244
-0.000635666
0.000828722
-0.000193056
-0.00013231
0.000396979
0.000476486
-0.00115297
0.000801508
0.000652962
-5.39232e-05
0.00166076
0.00124178
-0.00553014
-0.00306592
-0.00045741
0.000591504
0.000295191
0.00159276
-0.000766376
-0.00123445
2.18091e-05
-0.00355597
0.000490054
0.00156696
-0.000710522
0.000732313
0.000948126
0.000224886
-0.000998734
-0.000169822
0.000450086
0.000202876
-0.000889679
0.000984175
-0.000597236
-0.000242684
0.000839023
0.000156189
-0.000883299
0.00306183
-0.00339156
-0.000277469
5.67417e-05
0.00163996
0.00134109
-9.27618e-05
-0.000122379
0.000449631
-0.000934449
0.00173596
-0.000603704
0.00069386
-9.01558e-05
0.00359151
-0.00209862
0.00123105
0.000110039
0.000348423
-0.00142767
-0.00132492
0.000298511
-9.12475e-05
0.000788205
-0.000196701
0.000180288
0.000283235
-0.000463523
-0.00154994
0.00136409
0.000829647
0.00063251
0.0010989
0.000899176
-0.000157611
0.000680037
0.000712893
0.00124269
0.000531801
-0.000774486
-0.000647169
-1.10445e-06
0.00160889
-0.00152396
-8.49215e-05
0.000861916
0.000225018
-0.00108513
-0.000274878
-0.000959575
0.00041328
-0.000381345
0.000326413
0.000352773
-0.000172484
0.000809661
0.0011031
-0.00111827
0.000577607
-0.000127521
0.000410294
0.000715423
0.000383477
0.000396223
0.000391982
0.00146758
-3.4414e-05
0.000220312
-5.14136e-06
0.00032505
0.00109692
0.00196491
0.000792537
-0.000636348
-0.000252801
0.000642066
0.000681374
-0.000377449
0.000190729
0.000107783
-0.000268587
0.000396808
-0.00063794
0.000768066
0.00106713
-8.29509e-05
0.00345836
0.00187653
-0.00180052
-0.000766831
0.00291044
-0.00214361
0.00134287
-0.000710363
0.00086534
-0.000516917
-0.000787768
0.000725272
0.000311086
0.000266522
-0.000750439
0.000807181
0.000974364
0.000668172
-0.000271193
0.00015056
0.000910991
0.000278094
0.00111861
-0.00043857
0.000681331
-0.000285108
0.00101061
0.00158833
-0.000357282
0.000812269
-0.000611747
0.000102979
0.000522468
-0.000444215
0.000440278
-0.00145176
0.000618594
4.2098e-05
0.000198947
-0.000118602
0.000320112
0.000448042
0.000233332
0.000195241
0.000487335
0.00066886
0.000738069
0.00112617
0.00109252
0.000495812
-0.000148206
0.000286828
8.41863e-06
0.00129447
0.000162172
0.000190601
0.000705246
0.000628599
-0.000302186
0.000378741
0.000631873
-0.000317165
0.000368135
0.000206449
-0.000822833
0.000547955
0.000163716
-0.00104789
-0.00111643
0.000972834
-0.0012503
0.00208061
-0.000983693
-0.000206697
0.00145695
0.000592426
-0.000182132
0.00201534
-0.000879691
-0.00113564
0.00025115
7.96434e-05
0.000494
-0.000182915
0.000281866
-0.000119694
0.000345542
0.000997331
0.000673274
0.000234778
0.000446553
0.000263675
-0.000386054
0.00187254
-0.00139605
0.000878288
-7.11072e-05
0.000279611
-0.000656897
0.000377287
-0.000972781
0.000795337
0.000618914
0.000499693
0.000862362
6.68081e-05
-0.00017818
0.00032874
0.0012569
-0.000282538
-0.00118826
-0.000361681
-0.00112922
0.000959399
4.03035e-05
0.00023779
-0.000494427
0.000327423
0.000321233
0.000348572
-9.04265e-05
0.000247187
8.46232e-05
-0.00033181
0.000770723
-5.41496e-05
0.00089962
0.00278445
-0.00209903
-0.000685419
0.00130515
0.000141932
0.000455782
-0.000346295
0.000354714
0.000762713
0.000700003
0.00013902
0.000618599
-0.000385267
0.000202355
0.000291645
-0.000145433
0.00061509
0.00056973
-0.000282903
0.000733452
0.000230904
0.000566012
0.000535432
-0.00135826
2.18394e-05
0.000561167
0.00177564
-0.00068312
-0.000646379
0.000688477
4.94789e-06
0.000242239
-0.000290015
0.000485256
0.00181076
-0.00184518
-5.94338e-05
0.000265882
0.00056378
0.000800314
0.00024493
0.0012021
0.000878507
0.000267544
0.000584972
-0.000333822
0.000575139
-0.000340361
0.000594626
-0.000494042
-0.000245042
0.000324686
0.000136614
0.000145252
0.000933004
-0.00109062
0.000895952
0.000771657
-0.000152743
1.024e-05
-0.00108097
0.000903164
0.00105164
-0.000706097
0.000437929
0.00018067
-0.000357983
0.000521699
0.000541343
0.000229381
0.000307097
0.000199705
0.000178356
8.36974e-05
-0.000380494
0.000326344
0.000549299
-0.00044632
-0.000418658
0.000328232
-0.00116645
0.000685826
-9.12354e-05
0.000221237
-0.00106682
0.00102772
-0.000232387
0.00206546
-0.00120309
0.000147914
0.000553475
-0.000232242
-2.57801e-05
-0.000280403
0.000812204
0.000745186
8.70726e-05
0.000955475
-0.000138099
0.000280031
0.00237141
-0.000120889
0.000384565
-0.000748942
0.000677835
-0.000291493
0.000313332
4.1147e-05
0.000189757
0.0014483
-0.000548677
0.00190793
-0.00142059
0.000669405
0.000270573
0.000690457
0.000551464
-0.00028392
0.000217643
0.000127784
0.000560063
0.00113597
0.000127273
0.000180475
6.17642e-05
-6.04648e-05
0.00205097
-0.0017024
0.000765178
0.000405349
0.000432541
0.00100777
-0.00115598
-0.000786953
0.00116699
3.31929e-05
0.000103983
0.000471156
2.66921e-06
0.00024226
0.000289806
0.000761833
0.000186399
0.000171912
0.000542623
0.00137681
-0.000174709
-0.000323484
0.000523189
0.000675934
0.000239481
0.000532176
-0.000198903
0.0002826
-4.07468e-05
0.000219103
0.000556405
-0.000836808
-0.00126678
0.000970494
0.000657623
0.0019154
-0.00101944
-0.000390102
0.000298867
-0.0010238
-0.000105418
-0.000200425
0.0010735
-0.000364367
0.000545036
0.00114788
-0.000612451
-6.37577e-05
0.000498245
-0.000191148
9.63301e-05
0.000107624
0.000113613
-0.000321726
0.000295946
0.000451523
0.00021702
0.00054352
-0.00137295
0.00023305
0.000579155
-0.000121567
8.11278e-05
0.000183144
-0.000346871
0.000266003
0.000438558
-0.000618826
0.00020579
-0.000928113
-9.07992e-05
0.00014901
0.000712302
-0.000117818
-8.39382e-06
0.000510519
-0.000239946
0.00106107
-0.0012065
0.00049995
-0.000282307
-0.000228821
0.000645489
0.00138772
0.00120002
-0.000454829
0.000212886
-0.000451277
-0.000108227
0.000236011
-0.000287677
0.000435591
0.000425605
0.000226599
-0.00106578
0.000232705
-9.97822e-05
-0.000872953
0.000640566
0.000153564
3.71647e-05
0.00216686
-0.00149745
-0.000554173
-0.000243318
0.000276511
0.000169389
0.000882675
0.000520024
-0.000522256
-0.000402457
0.000651338
0.000176466
-0.00171536
0.00135368
0.000158822
6.09263e-05
0.000181334
-0.000720539
-6.72298e-05
-0.000195118
0.000472604
-0.000368621
-0.00102421
0.000823786
3.35116e-05
0.000152887
-0.000607922
0.000527626
0.00171298
-0.00170274
-0.000773785
0.000154959
3.6659e-06
0.000149898
3.92823e-05
0.00060954
0.000313802
-0.00117624
9.78779e-06
0.000110876
0.000402301
0.000142735
0.000608225
0.000996608
0.000380204
0.000807824
-0.000575119
0.000820516
0.000252987
0.00162798
-0.000862803
0.000464463
-0.000591531
-0.000161718
0.000242846
0.000631346
4.45879e-05
-8.28442e-05
-0.000483051
0.00070007
0.000114624
0.000344711
0.000109251
0.000342272
-0.00033509
0.000462363
-0.00033831
0.000274553
-0.00135575
0.000168709
0.000147125
8.72853e-05
-4.23647e-05
0.000933053
0.000391763
-9.28962e-05
0.000608538
0.000258483
0.000467917
-0.000201915
-3.1914e-05
0.000180925
-0.000273067
0.000264673
0.000214094
-0.000334983
-0.000646085
0.00058562
7.4293e-05
-9.83668e-06
0.000559136
0.000273944
0.000132267
5.08771e-05
0.000227971
0.000267864
0.000162438
0.000470311
-0.000243712
3.24809e-06
0.000178086
0.000292391
3.44322e-06
0.000322137
-7.39909e-05
-0.000751772
0.00065199
-9.4908e-05
0.00202851
-0.00131621
0.000188004
-0.000121047
-0.000202452
0.000241734
0.000100501
7.6896e-05
9.24926e-05
0.000120973
-8.80544e-05
0.000198931
0.00189127
-0.00168548
-0.000524603
0.00121043
-3.65451e-05
0.000531058
0.00105695
-0.000384796
0.000481126
-0.00088843
0.000485973
-0.000115967
0.000429769
-0.00101984
0.00056501
-0.000379273
-0.00034097
0.000483705
0.000469327
-0.000310505
4.03936e-05
0.000515744
0.000454445
-0.000277979
0.0010101
-0.000316854
-0.00069325
0.00137844
-0.000727106
-5.17014e-05
0.000430054
0.000643473
-0.00073344
-0.000291102
0.000248737
0.000135515
-0.000750609
0.00055549
0.000226305
0.00188992
-0.00123229
9.28701e-05
-0.000134102
0.000208395
0.00203069
-0.00156622
7.82285e-05
9.04804e-05
0.000343979
-6.94257e-05
0.00154576
-0.000837549
0.000315294
0.000251082
0.000426579
-0.000168096
-2.64281e-05
0.000515641
2.12426e-05
0.000125882
0.000127773
-0.000236441
0.000224664
0.000543938
0.000466166
-0.000231278
0.000234721
0.000436935
-0.000208964
4.44876e-05
0.000133598
-0.000164988
0.00110168
0.000491084
0.000683413
-0.00028044
0.000395065
0.000188529
-0.000316318
0.000478756
7.7567e-05
-0.000618594
2.13576e-05
-0.000732312
0.000157193
0.000874499
0.000122108
0.00177163
-0.00116309
0.000193223
0.000230889
-0.00103671
0.000268225
0.000768481
6.48284e-05
0.000128357
1.04566e-05
0.00014394
-0.00011211
0.000370969
0.000112736
0.000122716
-0.000351576
0.000433136
-0.000245132
0.000345203
-0.000636591
0.000256035
0.000380556
0.000444685
-0.000768066
0.000907086
-3.02776e-05
0.000151251
0.000113451
0.000113735
0.000455418
-0.000170344
0.000210738
-0.000114852
0.000328946
0.000350854
0.000216191
-0.000996679
0.000780488
0.000534386
-0.00112511
0.0010197
-0.000417018
0.000141875
-0.00118976
9.05291e-05
0.00103991
-0.00113071
0.000155157
0.000458025
-0.000467861
0.00197607
-0.00144501
3.80512e-05
-6.67762e-05
0.000293081
-0.00024989
0.000223462
-7.60953e-05
0.000168965
-0.000496373
0.000444672
-0.00029963
0.000230204
-0.00031575
0.000416251
-5.0893e-05
-0.000292286
0.000871441
0.000402053
-0.000177389
0.00137105
0.00116964
-0.000604633
9.56044e-05
-1.51694e-05
-1.76175e-05
0.000216469
9.41463e-05
0.00167121
-0.00137882
0.000604797
-8.90531e-05
-0.000651693
-0.00131553
0.00110372
-0.00118656
3.48059e-05
0.000341804
-9.07216e-05
0.00086976
-0.00031427
0.000809391
0.000164113
0.000126547
7.05144e-06
0.000490487
0.00019309
-0.000114863
0.000179692
0.000409845
0.000442537
-0.0024392
-0.000416887
0.00285609
0.000229694
9.11985e-05
4.43169e-05
0.000100714
-0.000197011
0.000207467
-0.00107553
0.000953961
0.00155426
-0.00136573
0.000522591
-0.000172894
7.93146e-05
0.000406859
-0.000213636
7.51553e-05
0.00109451
-0.00118942
0.00151672
-0.00100108
0.000517105
0.000636591
-0.000703821
4.98788e-05
7.78945e-05
-0.000208389
0.000321839
-0.000234699
0.000347435
-0.00059266
0.000356219
1.37267e-05
0.000136116
-0.00034497
5.81401e-05
6.45761e-05
0.000165764
-0.000646291
0.000481303
-0.000147988
-0.000272071
0.000416011
0.000353628
5.41019e-05
0.000426112
-0.000297755
0.000161727
8.46927e-05
-0.000354777
0.000432344
0.00166095
-0.00131574
7.43996e-06
0.000106295
-0.00026011
0.000209217
-0.000146245
0.000184296
-3.66477e-05
0.000438923
-0.000321419
8.672e-05
0.00178871
-0.0013333
0.00298156
-0.00298156
-0.00051489
0.000703821
-0.000616536
0.000300783
-7.05785e-05
-0.000215129
0.00019996
0.00180378
3.01621e-05
9.63849e-05
0.000210061
3.34466e-05
-0.000274292
0.000364821
9.82501e-05
0.000955651
0.000399476
-0.000244318
-0.00032787
0.000310252
0.000175439
6.14739e-05
0.000365473
-0.000149004
8.83023e-05
-3.337e-05
0.000128974
-0.00059595
0.000244374
0.00110346
-0.000420047
0.000104694
-0.0001237
0.000188084
0.00108056
-4.06474e-05
2.75725e-06
9.13891e-05
0.000377196
-0.000184106
-0.000239731
-7.66183e-06
-6.03058e-06
0.000201278
0.000343706
9.41959e-05
-5.66405e-05
-5.25852e-05
0.000109226
-7.0616e-05
0.000145771
-4.45541e-05
0.000295214
9.32575e-05
-2.13575e-05
-0.00161602
-0.000105289
-0.000973939
0.000852893
8.53346e-05
7.31426e-05
-2.69928e-05
0.000173327
-0.000288179
-0.000170046
0.000183772
0.000163559
0.000744613
0.000127405
0.000118256
-0.000102818
0.00015692
0.00167463
-0.00126478
0.00553014
-0.00442846
0.000550519
-9.24945e-05
0.000981681
-0.000491194
0.000377047
0.00127204
-0.000829501
-0.000303301
0.000382615
6.73334e-05
-0.000405231
0.000440037
-0.000138446
0.000223138
-9.20544e-05
7.29254e-05
-0.000541565
0.000124547
-0.000225914
0.000189267
1.42506e-05
-0.000736147
0.000421877
-0.000405074
0.000257086
-0.000263503
0.000192924
-0.000254844
-5.42863e-05
-5.5832e-05
0.00027096
0.00211205
-0.00211205
-0.000297191
0.000377916
-0.000216189
-9.48217e-05
-2.59546e-05
5.83584e-05
0.00147783
-0.00103891
-8.59574e-05
2.7113e-05
-0.000129401
0.000162848
-0.000107245
0.000972128
-0.000864883
0.00154155
-0.00118792
6.2832e-05
0.000358884
0.000296384
-8.6323e-05
4.29535e-05
6.15202e-05
-0.000186824
0.000179162
1.12129e-05
8.5172e-05
0.000345132
-0.000157048
0.00119157
-0.000238138
0.000324858
5.72412e-05
4.1009e-05
0.000191095
0.000133598
0.00121822
-0.00104278
-0.00190237
0.00401442
0.000208248
-0.00055993
0.000616536
-0.000459343
0.000179942
2.7518e-05
0.000161026
-0.000223107
0.000217077
-0.000335624
0.000397098
4.38622e-05
4.44402e-05
-3.0513e-06
2.54201e-05
6.87758e-05
0.000392473
-0.000287779
3.88038e-05
3.11197e-08
-0.000269258
0.0003424
0.000303657
0.000567783
0.0015651
-0.00122139
-7.8651e-06
9.31997e-05
-0.000491465
-0.000479983
-0.000421397
0.000181666
0.000352371
-0.000188812
0.000426818
-0.000149957
0.000164207
-0.000230537
0.00017625
-0.000164311
0.00111128
-0.000816062
-4.05281e-05
0.000113453
0.00105779
-4.12698e-05
-2.78245e-05
-1.99781e-05
0.000280256
-0.000106928
0.000261582
-6.86573e-05
0.000384193
-0.000265937
2.69338e-05
4.69912e-05
0.000175259
2.50184e-06
6.48315e-05
-7.07607e-05
0.000129119
-0.000197253
0.000171298
0.000369501
-0.000242096
1.28912e-05
0.00100646
-0.000225971
-0.000961453
0.000788559
6.84543e-05
-0.000281724
0.000136183
0.000300317
-9.72185e-05
0.000140172
6.64292e-05
0.000179308
1.81361e-05
6.7036e-05
0.000306383
8.60904e-05
6.82446e-05
0.000156089
-1.8091e-05
-0.000278931
0.000184109
6.19983e-05
5.56004e-05
6.09108e-05
-0.000376545
0.000403658
-0.000613651
0.00103865
-0.000661599
0.000633468
0.000372991
-0.000119232
0.00014675
-6.18543e-05
-0.00029652
0.00035804
0.000312472
-0.00013253
0.000209145
0.00126248
-0.000991521
0.000155424
-9.70841e-05
5.26717e-05
-0.000164728
0.000161677
0.000812149
-0.000390272
-0.000479048
0.000386554
0.000320955
0.000939876
6.84944e-05
0.00102937
-0.000670484
0.0003241
-0.000163074
4.26928e-05
0.000350631
-0.000217033
-0.00126435
0.00073431
0.000198743
4.6942e-05
7.45644e-05
9.64138e-05
-0.000391031
9.38403e-05
-0.000209365
3.19006e-05
0.000531533
0.000785331
-5.20866e-07
-3.76952e-05
7.64991e-05
2.05527e-05
-0.00028185
0.000103564
4.58803e-05
-0.000202206
0.000160936
0.00135965
-0.0011514
-0.000230178
0.00016152
-5.39274e-05
0.000135288
2.09405e-05
-0.000626285
0.000371441
-0.000152757
0.000152788
-0.000136353
0.000149244
0.00134596
-0.000505866
-3.09073e-05
-0.000199467
0.000108535
4.13163e-05
2.7138e-05
0.000255596
-8.03371e-05
2.71362e-05
1.34597e-06
6.50833e-05
-0.00010856
3.33214e-06
0.000213306
-0.000425841
0.000398017
-0.000174065
0.000155974
0.000138256
-0.00029663
0.000132319
-0.000324015
0.000371006
-0.000112521
1.03964e-05
-2.56535e-05
8.65643e-05
0.000158512
0.000328038
-0.000191855
0.000459343
-0.000334796
-0.000270879
0.00032648
-5.22051e-05
0.000104877
-1.23877e-05
0.000999094
-0.00103974
0.000294753
-0.000139329
-7.67914e-05
0.000119484
-0.000179338
0.000670423
-4.50853e-06
-7.12389e-05
7.57474e-05
1.64765e-05
5.05596e-05
0.000894091
-0.000593773
0.000147726
3.40253e-05
-0.000247237
0.000140309
-9.82712e-05
0.000130172
0.000312161
-0.000243916
0.00103974
-0.00106673
-0.000999094
0.00095454
-0.000148658
0.000148137
0.000131679
-2.21834e-05
0.000111005
-0.000193186
0.000131332
4.26623e-05
-0.00011603
0.000136971
2.89642e-05
3.30341e-05
-0.00115879
0.00106673
-0.000202596
0.000148669
-0.000981307
0.000467946
0.000513361
1.41735e-06
4.55247e-05
0.000225891
-6.43705e-05
0.000366156
-0.000280066
-4.16604e-05
-4.03978e-05
0.000357457
-0.000261043
-0.000636591
0.000104717
5.86237e-07
0.000837638
-0.000516683
3.94298e-05
-0.000178607
0.0001477
0.000145554
5.26004e-06
-0.000294149
0.000340029
0.000176039
0.000986198
-0.000777053
-0.000700784
0.000302816
-0.000167528
3.43592e-05
-0.00124475
0.000223606
4.12811e-05
0.000343363
-0.000239799
-0.00035643
0.000376983
2.80853e-05
4.36145e-05
-2.26337e-05
-5.32326e-06
0.00107784
-0.00100327
0.000278318
-0.000145999
2.12129e-05
3.23306e-05
6.89534e-05
-2.80512e-05
5.51875e-05
-0.000129674
0.00014007
0.00124475
-0.000186959
-0.000156358
0.00014397
1.41417e-05
-0.00095454
0.000898708
-0.000647679
0.000128704
0.000518975
0.000110961
-7.35664e-05
1.45759e-05
-0.000296877
5.29615e-05
-8.10312e-05
-0.000678454
0.000288183
0.000108049
0.000325649
-0.000217114
0.000364137
0.000421194
0.000265382
-0.000117657
-8.87254e-05
0.000186959
-7.6508e-06
-8.22074e-06
0.000647679
-0.000882675
0.000234996
-0.000207946
9.54245e-05
0.000126054
0.000725627
-0.000587371
7.29692e-06
-0.000307014
7.73545e-06
4.28242e-05
3.03815e-05
-7.66138e-05
6.92786e-05
0.000276254
-0.000144575
-0.000908913
0.000682942
-0.000814828
7.73909e-05
8.232e-05
1.74735e-05
-0.000316766
0.000350792
4.07696e-05
0.000236925
-9.66167e-05
-2.50497e-05
6.7712e-05
0.000334796
-0.000240956
-0.000139179
0.000139766
-0.000199286
0.000134916
-0.000179044
0.000137383
7.65088e-06
6.08436e-05
-4.81815e-05
8.76114e-05
-5.06174e-05
-0.000120354
0.00087873
-0.000898708
-0.000276945
0.000318226
0.00106347
-0.000921597
-3.13436e-05
-7.04783e-05
0.000104837
-5.14066e-05
5.66666e-05
8.58499e-05
-0.000393838
0.000371655
0.000108725
4.60646e-05
-2.45008e-06
0.000304863
-0.000193857
-9.07015e-05
0.000118787
-0.00015988
0.000137247
0.000516641
-0.000623886
0.000131854
0.000306402
-0.00025344
-0.000107974
0.000129187
0.000537238
-0.000150684
-0.000134246
9.38482e-05
2.32632e-05
0.00108284
0.00103797
-0.000296434
0.000328765
8.90821e-07
0.000769602
-0.000593563
-2.13575e-05
0.00021847
-7.29164e-05
-1.591e-05
-0.000121804
0.000135946
0.00093192
-1.68553e-05
-2.61969e-05
3.78084e-06
-6.08435e-05
0.00027415
-7.4517e-06
-0.000144748
0.000136527
0.000129745
-0.000690215
0.000173532
2.94567e-05
-0.000292863
3.94229e-05
2.17917e-05
2.38417e-05
1.89825e-05
8.77484e-05
2.10149e-05
0.000337771
0.000345862
-0.000276583
0.000281809
-0.000170848
0.000196337
-0.000100913
5.03383e-05
-0.00034109
0.000355666
-0.000131906
0.000139203
0.0002493
-0.000123247
1.95305e-05
0.000907086
0.000119268
1.71331e-05
5.29988e-05
1.4136e-05
0.000321347
-0.000239027
0.00077017
0.000776868
-0.000782191
0.000889027
-0.000255559
0.00222794
-0.00116447
0.000104726
0.000336431
-0.00025904
1.08129e-05
0.000572174
-4.98233e-06
-6.58865e-05
1.77924e-05
4.80942e-05
3.59646e-05
-5.58308e-06
7.38289e-06
2.13917e-05
-0.000402031
-0.000176048
0.000125431
-0.000226404
-0.000145425
6.88111e-05
-2.78699e-05
4.53434e-05
0.000508807
-0.000582373
-0.000159722
0.000128379
9.70176e-06
-3.86648e-05
2.00705e-05
2.06991e-05
-5.15767e-05
0.00126355
-0.00168043
0.000303582
-0.000217732
0.000308547
-0.000269124
0.000240956
-0.000172003
5.98478e-05
-0.000274149
0.000497756
0.000192956
-5.80409e-05
-0.000313462
0.000336725
0.00025739
-0.000148664
-2.24757e-05
0.000331162
-0.000278164
4.03959e-06
6.23065e-05
0.00124251
-0.000725868
8.79519e-05
-9.21994e-06
-0.0002895
0.000318957
1.53033e-05
-0.000209177
0.00011256
-0.000138303
0.000139194
0.00012004
-0.000146636
0.000130726
0.000320912
-0.000432799
0.000351767
0.000321465
-0.000261617
-7.85641e-05
6.45551e-05
-1.94499e-06
2.09275e-05
-0.000305437
0.000327229
0.00155952
0.000953718
-1.01081e-05
-0.000633476
3.99133e-05
-0.00122982
-4.3811e-05
4.75919e-05
0.000295455
3.57076e-05
8.65414e-05
0.000848502
-0.000380556
1.9046e-05
0.000303843
-0.000241537
4.33013e-05
8.99864e-07
0.000222884
-0.000103616
2.6331e-05
-0.000459945
8.09472e-06
0.000283486
-0.000195737
-6.11439e-05
1.44875e-05
9.96378e-05
-7.94321e-05
9.35397e-05
0.000569862
-0.000577313
6.73428e-05
-0.000367769
0.000350914
-0.00124475
-0.000217636
1.87542e-05
-0.000285457
0.000321164
0.000232416
-0.00012769
4.22256e-05
0.00110583
6.57537e-05
-0.000141191
0.000136208
1.35198e-05
-0.000575249
0.000268235
0.000315388
-0.000272087
-0.000317546
0.000332849
0.00062961
-0.000497756
-0.000647679
0.000137565
-6.87537e-05
0.000403333
-0.00102722
2.99315e-05
3.66523e-05
-0.000156433
0.000117768
-0.000330118
0.00033982
0.000170217
-4.47869e-05
0.000285015
-0.00022046
6.60676e-06
8.37511e-05
0.000197616
-8.50561e-05
-0.000898708
-1.21033e-05
9.68283e-06
0.000997293
-0.000593961
0.000112176
1.53239e-06
-2.80543e-05
-1.22619e-05
3.36536e-05
-5.23962e-05
4.31763e-05
-3.36536e-05
5.46685e-05
0.00026162
-0.000173668
0.000172003
-0.000121665
-0.000483281
-0.000829136
0.000573577
-5.46686e-05
7.41991e-05
-0.000468293
0.000317609
0.00116447
-0.000843556
4.34783e-05
-0.000145226
0.000122751
-0.00077017
0.000649816
-7.41992e-05
9.13322e-05
0.000293043
-0.000250817
-9.13322e-05
0.000105468
-0.000212329
0.00442846
-0.00255865
-0.00186981
-0.000105468
0.000116281
-1.9969e-06
0.00164454
-0.00182388
2.09561e-05
0.000309298
1.18657e-05
-0.000116281
0.000123664
-0.000184144
0.000104712
-0.000101128
4.9551e-05
6.58831e-05
-6.41037e-05
-0.00029631
0.000322641
-1.45007e-05
-0.000327047
0.000340567
0.000238614
-0.000152072
0.000460961
-0.000250452
-0.00021051
0.000207716
-0.000108079
1.22616e-05
8.66593e-06
0.000332917
-0.000313871
-0.000146194
0.000264581
-0.000198827
0.000489675
-0.000449762
9.40004e-05
-3.37849e-05
-0.00015939
0.000271425
-0.000123664
0.000127704
-0.000237477
0.000178573
-0.000580604
8.00266e-05
-0.000140731
0.000130623
4.41207e-05
-4.8044e-06
0.000272024
-0.000228545
6.49453e-05
-8.76384e-05
-0.000327849
0.000334455
-5.30784e-05
2.15996e-05
3.14788e-05
0.000290909
-0.000260978
0.000317444
-0.000543848
2.12062e-05
-0.000335901
0.000345584
5.00064e-06
0.00021509
-0.000131339
-8.66584e-06
2.742e-05
-0.000173572
8.85157e-05
-0.00015053
0.000105743
-2.74203e-05
4.19078e-05
0.000242951
-0.000177068
-0.000116526
0.000551046
1.29881e-05
-0.000538925
7.898e-05
0.000347312
-7.49268e-06
-0.000127704
0.000128603
5.87037e-06
-0.000162032
9.79283e-05
-3.27617e-05
-4.19077e-05
5.00024e-05
0.00018388
-8.98799e-05
-4.52273e-06
8.76981e-06
6.30174e-05
-6.88603e-05
-0.000264929
-4.98558e-05
-0.000394723
0.000333579
7.58017e-05
4.66522e-06
0.000424893
-0.000908174
0.000335209
0.000826152
-0.000401259
-4.38098e-05
-9.90209e-06
4.41239e-05
0.000302775
0.000260978
-0.000240022
-0.000141018
0.000112964
0.000843556
-0.000572131
0.000161401
-7.28854e-05
0.000250156
-0.000206035
0.000232191
0.000121665
-8.50126e-05
0.000559024
0.000394694
0.000191725
-0.000111698
-0.000360352
-0.000312369
-0.000336
-0.000441525
-8.23634e-06
-0.000362545
-5.00025e-05
5.15349e-05
0.000220565
-0.00015562
-9.52802e-05
2.65265e-05
0.000169069
-9.32677e-05
-0.000151941
8.30807e-05
2.16103e-05
7.15212e-05
-1.82676e-05
-4.57291e-05
-0.000432597
0.000220268
-0.000128603
0.000126607
6.03861e-05
-5.40128e-05
-0.000369146
0.000281508
-0.000142452
9.25958e-05
-0.000753923
0.000417923
-0.000342288
0.000347288
-0.000649816
0.000503622
0.000197848
-0.000134831
5.73714e-05
-0.000337442
0.000329949
4.34976e-05
0.000240022
-0.000218816
0.000147566
-7.60448e-05
0.00031429
-0.000322527
-5.15349e-05
4.67305e-05
-3.67087e-05
0.000288477
5.42983e-05
-2.9868e-06
-0.00013734
0.000122839
-0.000140406
6.75209e-05
3.29657e-06
0.000869416
-0.000448222
0.00442846
-0.00013442
0.000101658
0.00022766
-0.000183536
0.000175344
-0.000114957
0.000330404
-0.000324533
-5.73256e-05
0.000572131
-0.00033994
-0.000302775
0.000315763
-0.000132594
7.85817e-05
-9.61382e-05
0.00015351
-0.000315763
0.000324533
-4.67303e-05
3.68282e-05
-6.96937e-05
3.59089e-05
-0.000180346
-0.000330404
0.000335069
4.22282e-05
-5.4856e-05
0.000127477
-5.99565e-05
0.000132739
-7.8441e-05
3.7515e-05
-0.00040006
-3.99986e-05
2.16253e-05
4.05127e-05
0.000364042
-2.88329e-05
-0.000126606
0.000122084
5.14326e-05
-6.71739e-06
-0.000260978
0.000218816
-0.000197206