/*--------------------------------*- C++ -*----------------------------------*\
  =========                 |
  \\      /  F ield         | OpenFOAM: The Open Source CFD Toolbox
   \\    /   O peration     | Website:  https://openfoam.org
    \\  /    A nd           | Version:  8
     \\/     M anipulation  |
\*---------------------------------------------------------------------------*/
FoamFile
{
    version     2.0;
    format      ascii;
    class       volVectorField;
    location    "0.15";
    object      U;
}
// * * * * * * * * * * * * * * * * * * * * * * * * * * * * * * * * * * * * * //

dimensions      [0 1 -1 0 0 0 0];

internalField   nonuniform List<vector> 
1924
(
(0.649976 -1.25914 3.55958e-19)
(0.740971 -1.15904 6.48285e-20)
(-0.0696979 -0.119897 1.41799e-19)
(0.125901 -0.319021 7.70771e-19)
(0.722375 -1.20909 -4.40137e-19)
(-0.18293 0.101017 1.79268e-18)
(-0.0439229 -0.15182 6.61104e-19)
(-0.324822 0.320316 -5.19837e-19)
(-0.303459 0.120864 -3.2125e-19)
(0.0109616 -0.496134 2.04287e-20)
(-0.520524 0.374057 -3.98086e-19)
(-0.56539 0.281677 -5.43771e-19)
(0.935454 2.15715 3.13017e-17)
(-0.665737 0.405583 -6.02128e-19)
(-0.379495 0.121025 2.53872e-20)
(-0.345496 0.128018 -2.06605e-19)
(0.904636 1.67593 3.00778e-17)
(-0.725088 0.338665 8.13915e-19)
(0.497625 -1.19711 3.22746e-18)
(-0.727049 0.31387 -3.8816e-19)
(1.09591 2.40338 1.87494e-17)
(0.196507 0.211107 -5.89972e-19)
(0.656333 -0.540399 -6.23007e-19)
(-0.760754 0.237364 1.38213e-19)
(0.165697 0.196706 -5.59809e-19)
(0.0267801 0.251073 -5.05144e-20)
(0.00849262 0.282726 -2.31747e-19)
(0.71796 -1.0193 2.4118e-18)
(-0.0401553 0.851054 4.40264e-18)
(0.154044 -0.527131 -1.39888e-19)
(0.881211 -0.226707 3.03682e-18)
(0.12741 0.218704 1.36667e-19)
(-0.869976 1.46019 -7.89532e-18)
(0.946957 0.559449 2.00847e-17)
(0.703658 -1.11355 -8.20231e-20)
(0.408672 -0.419194 -2.07282e-18)
(0.121362 0.265831 6.82998e-19)
(0.00384376 0.360477 2.25839e-18)
(0.118453 -0.516217 -4.23967e-19)
(0.967036 0.0579926 9.82557e-18)
(0.0798406 0.27332 1.55699e-19)
(1.0495 2.53128 2.45285e-17)
(0.0657652 0.248846 -2.89878e-20)
(0.540241 -0.705847 1.84256e-18)
(0.727982 -0.780706 2.80109e-18)
(0.183072 2.65137 2.96052e-18)
(0.568367 -1.16057 7.7448e-18)
(0.506561 -0.834349 -4.25566e-20)
(0.681566 2.39029 7.77664e-18)
(0.643987 1.93654 4.48786e-18)
(-0.684827 -0.562243 8.92002e-19)
(1.0715 2.58946 2.93621e-17)
(0.237828 0.193771 1.33142e-19)
(-0.8319 -0.43204 2.81159e-18)
(0.300064 1.70792 -2.71709e-19)
(0.437348 -1.04286 -1.1229e-19)
(0.482157 -1.13421 5.51982e-18)
(0.696292 -0.790518 1.05958e-18)
(0.786677 -0.933997 1.18964e-18)
(-0.104212 0.211033 2.68786e-20)
(0.299973 -0.786349 3.83411e-19)
(-0.334011 0.167221 -3.47377e-19)
(0.0194554 -0.906006 4.98624e-18)
(0.121132 -0.47797 -3.09193e-19)
(-0.571001 -0.201008 2.88622e-18)
(0.468254 -0.886618 3.04764e-19)
(-0.215433 0.196527 4.03962e-19)
(0.498369 -0.235752 -4.54948e-19)
(0.0373977 2.17946 2.63186e-18)
(-0.870327 -0.840471 -1.62479e-18)
(-0.121715 -0.273994 2.57254e-17)
(-0.29863 0.16082 -4.05527e-19)
(0.110115 -0.492192 -5.52833e-19)
(0.174885 -0.565681 4.48168e-20)
(0.140506 -0.58647 1.23878e-19)
(-0.906463 -0.321432 2.41067e-18)
(0.318042 -0.917783 6.15137e-19)
(0.162909 -0.624692 1.94195e-19)
(0.425436 -0.769628 4.90738e-19)
(-0.159098 -0.833014 1.47353e-18)
(-0.236263 -0.707983 -1.4009e-18)
(-0.0242288 0.277939 -4.95224e-19)
(0.335667 -0.432554 1.35687e-18)
(1.20261 2.23662 2.54168e-17)
(0.455193 -1.27755 -7.02098e-19)
(0.395041 -0.167422 -1.05367e-19)
(0.685513 -0.943966 8.67717e-19)
(-0.410861 0.155236 2.7394e-20)
(0.632311 2.16734 9.65425e-18)
(0.623046 0.81941 3.24796e-17)
(-0.212812 0.22986 1.08359e-18)
(-0.0319422 0.251837 2.96871e-20)
(0.420857 2.05454 -1.08029e-18)
(0.39573 0.781461 -1.22366e-18)
(0.659639 2.02769 3.69607e-17)
(-0.669638 -0.0834666 1.47908e-18)
(0.292403 -0.951885 6.42407e-19)
(-0.348544 -0.653043 -4.79548e-19)
(-0.0999063 0.230928 3.51744e-19)
(-0.596696 -0.42285 4.9123e-18)
(-0.329984 0.672397 2.41896e-19)
(0.953659 2.37779 3.35135e-17)
(-0.108431 0.251439 2.24914e-19)
(-0.0584287 0.246647 -1.18932e-19)
(0.331502 0.582656 -3.80188e-19)
(0.189025 -0.717394 2.23244e-18)
(-0.0566999 1.71374 8.74112e-19)
(0.0867716 0.297016 2.73445e-19)
(-0.0892532 0.193533 -1.85614e-19)
(0.516515 1.76781 -1.93208e-18)
(0.178458 -0.978116 6.50368e-19)
(0.118264 2.23046 1.18945e-18)
(0.379769 -0.508217 2.82613e-19)
(0.236216 -0.476103 4.52139e-19)
(0.338976 -0.788094 6.20874e-19)
(1.06623 1.47822 1.92978e-17)
(-0.294094 0.4517 -3.98066e-19)
(-0.322688 0.095481 -1.72377e-19)
(0.188938 -0.0326462 -1.0559e-19)
(0.283226 -0.866466 6.23574e-19)
(0.453507 -0.922995 3.00871e-18)
(1.6268 0.050679 -2.60695e-18)
(0.876988 2.25254 1.02296e-17)
(0.702645 0.40479 2.38093e-17)
(-0.244812 0.174798 3.88179e-20)
(0.238339 0.497503 -9.02613e-19)
(-0.905292 -0.0714969 4.76165e-18)
(0.147731 -0.647587 1.65612e-19)
(0.394841 1.8791 -9.60675e-19)
(1.37868 -0.30006 -1.75221e-18)
(0.183982 -0.976382 6.31805e-19)
(-0.216101 1.4123 7.55167e-19)
(-0.810848 -0.00162668 -9.1712e-19)
(0.316696 -0.476514 6.95588e-19)
(0.943324 2.61518 3.43522e-17)
(0.373157 0.887658 -3.46815e-20)
(-0.18851 0.793307 1.42815e-18)
(-0.0746337 1.80261 1.21792e-18)
(-0.717016 0.197638 -2.13152e-19)
(0.435658 -0.697834 2.53017e-20)
(0.583758 -0.921413 2.61939e-19)
(-0.273108 0.194437 1.65471e-19)
(0.626523 -0.966448 1.95436e-17)
(0.0748674 2.73616 8.18072e-18)
(-0.371869 0.724282 2.83192e-18)
(1.26596 -0.36017 -5.55192e-18)
(0.0949743 0.340368 7.03736e-19)
(-0.657391 -0.0544692 1.81867e-17)
(-0.095614 0.174234 -2.32454e-19)
(0.159364 -0.0365656 -5.20955e-20)
(0.209523 -0.409644 1.45832e-18)
(1.33062 0.00350624 4.67654e-19)
(-0.962132 0.385437 1.2749e-17)
(-0.200126 1.33598 5.27155e-19)
(-0.360541 0.594803 5.2429e-18)
(0.199123 0.495999 -1.95447e-18)
(1.55448 0.203166 -6.55661e-18)
(-0.220821 0.386318 4.33268e-19)
(0.158684 -0.945703 -1.49983e-19)
(0.627122 -0.254128 -1.17978e-18)
(0.226492 -0.507846 4.04496e-19)
(-0.700896 -0.321771 3.99581e-19)
(-0.319035 1.14619 6.66104e-20)
(1.77987 0.00722603 3.04341e-19)
(0.102855 -0.453078 4.85119e-19)
(0.321934 0.753674 -2.71423e-19)
(0.175822 0.603067 -3.76465e-19)
(1.52883 0.248727 -2.66147e-18)
(0.247586 -0.840931 7.14721e-19)
(0.36193 1.53298 -4.92729e-19)
(-0.399098 0.348994 1.54428e-18)
(-0.440259 0.744204 1.00699e-18)
(0.24047 -0.67741 5.2115e-18)
(-0.0701006 0.2286 6.68229e-20)
(0.511265 -0.912442 8.76492e-20)
(0.0221222 0.679284 -1.01263e-18)
(0.171858 -0.501884 6.44096e-19)
(-0.117998 -0.794515 1.54055e-17)
(0.304418 -0.431851 5.14241e-20)
(-0.307165 1.05792 6.8785e-19)
(0.118488 0.510541 -4.06541e-19)
(-0.322963 0.0687022 2.32928e-19)
(0.229635 -0.645874 5.8204e-19)
(0.130546 0.578795 -4.85273e-19)
(0.622926 2.55222 3.02183e-18)
(0.838132 -1.20701 5.84868e-19)
(-0.935708 0.705667 8.35372e-18)
(0.067677 0.484875 -4.77987e-20)
(0.221859 -0.901368 7.44293e-19)
(0.263662 -0.562706 2.52911e-19)
(-0.0726421 0.422795 1.53561e-19)
(-0.479868 0.656876 -2.10627e-18)
(0.107979 -0.932693 -5.56326e-19)
(-0.403465 0.942647 2.87285e-18)
(0.050979 0.625869 -4.40826e-19)
(1.2975 -0.00500842 8.35071e-20)
(0.0067995 0.453218 -2.81064e-19)
(0.109012 0.614872 -2.07898e-19)
(0.12345 0.550561 -2.4903e-19)
(0.280577 0.716847 7.10298e-19)
(0.302055 3.9844 3.01725e-19)
(0.735149 -1.16532 1.30493e-18)
(0.233946 0.900741 4.25551e-19)
(-0.524972 0.69592 -7.38749e-19)
(0.00230694 -0.237685 4.16745e-18)
(0.113105 0.483979 -2.59949e-19)
(-0.381765 0.848199 1.17894e-18)
(-0.396755 1.51356 2.4346e-17)
(-0.516624 0.948668 3.03209e-17)
(-0.0646149 -0.261289 -1.9946e-18)
(1.87578 -0.0244603 3.21023e-19)
(0.19062 1.51084 -4.56616e-19)
(-0.58569 0.149721 -1.00692e-18)
(0.0219684 0.586327 -8.20099e-19)
(0.057984 0.455339 -3.37276e-20)
(0.174819 -0.691798 6.11349e-19)
(-0.0843402 0.161263 -1.73626e-19)
(0.00688939 0.468812 -1.20153e-19)
(-0.46092 0.764505 6.80614e-19)
(0.124188 -0.656104 1.98987e-19)
(0.124534 0.474146 -5.66678e-19)
(0.443953 -0.453797 2.16118e-18)
(0.174966 0.79381 1.39254e-18)
(-0.527092 0.145657 -2.41213e-19)
(-0.590456 0.611233 -6.3695e-19)
(-7.86957e-05 0.421855 -1.29915e-19)
(-0.0372708 -0.843501 -6.35812e-19)
(0.112723 -0.952187 -5.72365e-19)
(-0.059637 0.593229 5.90848e-19)
(0.319105 0.59393 4.60431e-19)
(0.117459 2.17328 3.20194e-18)
(-0.161069 0.231619 -1.519e-19)
(0.142832 0.521135 -5.01851e-19)
(-0.461408 -0.568358 4.5884e-19)
(-0.0489838 0.413856 -7.83338e-20)
(0.0471454 0.0107981 -6.94437e-19)
(-0.585947 0.0827779 -1.4634e-19)
(-0.425645 0.667321 4.94512e-19)
(0.0561738 0.834994 6.82883e-19)
(1.35241 -0.0892707 -1.88587e-19)
(-0.296843 0.0505574 7.58231e-19)
(0.160895 0.480039 -1.14754e-19)
(-0.652061 0.0646263 -5.07306e-20)
(-0.366486 1.27534 1.30885e-17)
(1.11247 -0.441007 9.22729e-19)
(0.0410019 1.79757 3.78007e-17)
(-0.577996 0.578225 -1.31653e-18)
(0.41832 -0.909439 5.28117e-19)
(0.197123 -0.655937 6.43521e-19)
(0.0812449 -0.694936 -4.26809e-18)
(0.881054 -1.09925 -6.06866e-19)
(1.77049 -0.072287 -6.02553e-21)
(-0.0719184 0.548874 1.01032e-18)
(0.156512 1.26812 -8.46147e-19)
(0.253519 -0.782301 9.98499e-19)
(-0.484421 0.0933826 -4.99344e-19)
(0.0203755 0.233263 2.86272e-20)
(0.203569 0.392818 5.74925e-19)
(0.122818 0.491049 1.46802e-19)
(-0.483738 0.597257 5.61144e-19)
(0.125332 0.523656 -8.85645e-19)
(0.00639587 0.740941 -3.07774e-19)
(-0.0627528 0.212159 2.25106e-19)
(0.197954 -0.697224 3.2408e-19)
(0.111193 0.209195 7.87348e-20)
(0.105613 -0.582384 2.26197e-19)
(0.854419 2.28084 2.29276e-17)
(0.155364 -0.708925 3.74743e-19)
(0.167537 0.390783 -1.38252e-18)
(0.109717 -0.786974 3.63046e-17)
(0.43335 0.454732 2.85905e-19)
(0.151975 -0.431534 7.09047e-19)
(0.122201 2.76221 5.71314e-18)
(0.129242 0.368325 8.14247e-19)
(-0.150489 0.21386 -2.03043e-19)
(-0.319842 -0.688245 -1.86727e-18)
(-0.633703 0.512025 -3.31698e-18)
(-0.0513296 0.38271 -3.15849e-19)
(-0.00801753 1.21125 -7.21236e-20)
(0.21545 0.557507 1.20759e-19)
(0.556866 3.53958 5.13849e-18)
(1.27805 -0.100525 -1.00275e-18)
(-0.185314 0.245023 2.04032e-19)
(-0.140679 0.533698 2.0697e-19)
(0.365847 -1.15782 5.32158e-18)
(0.223158 -0.590455 2.36322e-19)
(-0.104505 -0.829993 4.64232e-19)
(1.6716 -0.213288 -1.91131e-18)
(-0.441043 0.509281 3.74691e-19)
(0.158183 0.436581 -9.61193e-20)
(-0.0970481 0.732568 1.19802e-19)
(0.0970202 -0.534805 -1.7239e-19)
(-0.0934802 0.369208 -3.84843e-19)
(-0.515811 0.0277335 -2.80506e-19)
(0.586231 1.08243 9.7987e-18)
(0.107386 -0.471456 4.64981e-19)
(-0.449045 0.10309 -2.21664e-19)
(0.381583 1.74982 1.89793e-17)
(0.128003 -0.68258 2.63937e-19)
(-0.475876 0.048411 -4.32044e-19)
(1.07105 -0.249257 -1.28536e-18)
(-0.0370583 1.0265 2.14151e-20)
(-0.619519 -0.021944 3.98772e-20)
(-0.0862105 0.145718 4.71336e-19)
(-0.581946 0.449358 -1.33074e-18)
(0.0685098 0.344866 1.85773e-19)
(0.89669 1.76928 2.6814e-17)
(-0.670434 -0.0872712 1.2243e-20)
(0.187975 0.35856 9.38607e-19)
(0.56762 -0.585263 1.35981e-18)
(0.236358 2.09978 3.57412e-17)
(0.133766 -0.072394 7.8045e-20)
(-0.140725 0.49067 6.71439e-19)
(0.199969 0.13635 4.47146e-19)
(0.203909 -0.843161 1.7365e-19)
(0.948327 1.43251 2.75477e-17)
(0.101413 0.515496 -1.43553e-18)
(-0.487928 0.443055 1.45496e-19)
(-0.120146 0.654129 8.74023e-19)
(0.0561796 0.534051 -5.4608e-19)
(0.0943707 -0.561636 -5.89319e-21)
(0.390489 0.401333 2.88049e-19)
(-0.171036 0.9655 -2.90774e-19)
(0.134501 -0.457564 4.47195e-19)
(0.0184555 0.313897 -1.21491e-19)
(-0.0661049 -0.851052 -5.73066e-19)
(0.0996002 0.435839 -6.80446e-20)
(0.118087 0.338967 1.09507e-18)
(0.267349 -0.790806 8.63646e-19)
(-0.387655 -0.511142 -2.16645e-18)
(0.230738 0.490128 6.81998e-20)
(-0.194133 0.176874 -5.83358e-20)
(0.197285 0.103145 2.94023e-19)
(-0.641031 0.375044 -1.15606e-18)
(0.102477 -0.626714 1.17381e-20)
(-0.0910621 0.339897 -5.3868e-19)
(-0.124295 0.203689 3.62957e-21)
(-0.196952 0.625437 2.38438e-19)
(-0.194286 0.463994 -1.83853e-19)
(-0.180098 0.831386 -4.14473e-19)
(0.0212174 -0.907576 8.5901e-20)
(0.181373 -0.44599 3.24886e-19)
(0.15198 0.167169 -1.54796e-20)
(0.555336 1.27259 1.26816e-17)
(-0.409687 0.0696865 -1.24313e-19)
(-0.287999 0.122122 -8.12181e-19)
(0.298095 3.93207 8.31764e-18)
(-0.229294 0.145636 2.29124e-19)
(0.108283 -0.0631857 -2.10791e-19)
(0.0592896 0.314156 8.32318e-20)
(0.0667332 0.219565 -2.08601e-19)
(1.28991 -1.04249 -2.30816e-18)
(0.053893 -0.446038 2.67098e-19)
(-0.488557 -0.0284335 -2.15455e-19)
(0.743494 2.51865 3.69827e-17)
(-0.255452 -1.06443 -1.78107e-18)
(1.47867 0.615034 6.40814e-19)
(-0.44021 0.373457 -6.35255e-20)
(0.217743 0.307441 -1.91528e-19)
(-0.52049 -0.0486224 3.05609e-19)
(-0.124556 0.322491 1.47392e-19)
(-0.423961 0.0166927 -2.25536e-19)
(-0.525063 -0.0726618 -1.34149e-19)
(-0.1545 0.194226 -2.99624e-19)
(0.0822424 0.211514 -3.65763e-20)
(-0.276507 0.774566 1.47533e-19)
(0.156493 0.144161 1.93079e-19)
(0.421346 0.284249 -7.85625e-19)
(-0.187481 0.424708 -5.75389e-19)
(-0.201265 0.562092 9.13085e-20)
(-0.600001 -0.179208 -7.13015e-20)
(0.0346011 0.509062 2.29538e-19)
(0.145863 0.292618 1.76964e-19)
(-0.291217 0.0262203 -4.90403e-19)
(-0.0217863 0.224183 -7.82018e-20)
(0.367409 -0.947905 8.18178e-18)
(-0.397963 0.0347236 -1.53174e-19)
(-0.38053 0.0832335 3.98008e-20)
(0.107781 0.180675 -9.37618e-20)
(-0.240325 0.127211 3.10432e-19)
(-0.264431 0.113002 -6.49355e-19)
(0.0681736 -0.782157 2.46956e-20)
(0.0913763 0.401681 1.10647e-19)
(-0.0221835 0.51049 -1.48805e-19)
(0.294722 0.423619 1.56724e-19)
(-0.611625 -0.277602 -5.29149e-19)
(0.0885044 -0.6037 3.67285e-19)
(-0.170187 0.17891 -4.46366e-19)
(-0.000947901 0.224686 -4.20231e-20)
(-0.26901 0.673003 1.52935e-19)
(0.0377689 -0.355184 1.51746e-18)
(0.165173 0.0981358 4.06586e-19)
(0.0403595 0.400085 6.6488e-20)
(-0.191029 0.15283 5.78228e-19)
(-0.261168 0.517495 -1.54866e-19)
(-0.686298 -0.407466 -6.84684e-19)
(0.0282704 0.209584 2.79491e-19)
(0.114199 0.163051 -2.28473e-19)
(-0.430529 -0.547097 -1.46857e-18)
(-0.297754 0.096196 -3.74775e-19)
(0.673827 -0.564137 -6.74746e-19)
(0.0972147 -0.658943 3.7936e-19)
(0.909379 0.609088 5.95059e-18)
(0.0924097 0.206865 -7.8997e-19)
(1.07212 0.154722 -1.98769e-20)
(-0.124399 0.183412 -3.37376e-19)
(-0.57186 -0.497833 -7.25291e-19)
(-0.202271 0.139516 8.22312e-19)
(0.193534 0.276295 -1.16244e-18)
(0.0405392 0.203014 3.15489e-19)
(-0.11874 0.296833 3.50751e-19)
(0.158578 0.0733149 1.64014e-19)
(-0.46608 0.317165 -3.03947e-20)
(-0.334163 0.6217 1.56353e-19)
(-0.226478 0.393038 3.01752e-19)
(-0.0754345 0.134719 4.17846e-19)
(-0.272304 -0.773079 -7.47852e-19)
(-0.402623 -0.0260454 -1.64977e-19)
(0.303395 -0.0855397 2.80189e-19)
(0.190189 -0.875202 6.00968e-19)
(-0.425929 -0.0583172 -1.55791e-19)
(0.372642 0.262171 -1.52114e-18)
(-0.489144 -0.608461 -9.39551e-20)
(0.662594 2.30537 3.09899e-17)
(0.0675954 0.184593 -1.5025e-20)
(-0.476636 -0.139681 -1.27137e-19)
(0.1885 -0.689903 5.82218e-19)
(0.0786728 -0.522456 -5.6443e-19)
(0.128845 0.128253 3.61159e-19)
(-0.0485648 0.200093 2.97967e-19)
(-0.138869 0.176474 -2.65417e-19)
(-0.1848 -0.845214 -1.06864e-18)
(-0.0723731 0.197844 -1.71275e-19)
(0.149622 0.0356142 1.50996e-19)
(-0.253562 0.465233 -5.19666e-19)
(-0.0343032 0.203296 8.64686e-21)
(-0.497425 -0.208552 -1.26234e-19)
(0.383535 1.97813 2.16228e-17)
(-0.319275 0.535819 -1.23465e-19)
(0.0780149 0.171895 -5.8319e-20)
(0.27342 0.379544 -1.7659e-19)
(-0.00409684 0.198888 -1.63436e-19)
(-0.0352535 0.477784 -7.60706e-19)
(0.0977102 -0.506897 4.68378e-19)
(-0.219886 0.112126 3.04493e-19)
(0.816077 -0.130893 -1.58148e-18)
(-0.142635 0.277061 -2.81135e-19)
(0.0837311 -0.637327 -9.05938e-20)
(0.0331526 0.369762 3.22329e-19)
(-0.161869 0.156682 -2.37228e-19)
(-0.348676 0.0591401 1.18895e-19)
(0.130146 0.107965 4.75171e-19)
(-0.0888611 0.466992 3.29021e-19)
(-0.698331 -0.234626 -1.21412e-18)
(0.00949459 0.194235 -2.71978e-19)
(-0.0119397 0.363978 -4.61346e-19)
(-0.528936 -0.365729 -3.2631e-19)
(-0.361192 0.0124166 -1.77583e-19)
(0.135774 0.0145017 9.82661e-20)
(-0.256891 0.0894121 -1.06487e-18)
(-0.0120277 -1.02607 4.75315e-19)
(0.0944715 0.145507 -4.47971e-19)
(0.789366 0.246994 1.83452e-17)
(0.137548 -0.0120317 -2.47179e-20)
(0.822234 0.456704 1.86405e-18)
(-0.171226 0.146013 -2.04395e-19)
(-0.189372 0.122288 1.81793e-19)
(-0.213656 0.358819 6.56238e-19)
(-0.365919 0.477219 -5.61901e-20)
(0.468373 -0.650785 6.09306e-19)
(0.0330988 0.181791 3.31138e-19)
(0.131575 0.0728013 2.81017e-19)
(0.0660299 -0.569467 1.28649e-19)
(-0.512989 -0.469214 -3.87609e-19)
(0.366709 0.171267 -2.44272e-19)
(0.0183677 -1.00661 5.09112e-19)
(0.0859602 -0.488197 3.9169e-19)
(-0.421245 0.270288 2.77714e-19)
(-0.225247 0.0975233 3.68193e-19)
(-0.279208 0.0733389 -5.13602e-19)
(-0.13488 0.250823 1.19534e-19)
(-0.294553 0.424031 -4.43564e-19)
(-0.110038 0.168191 -1.68406e-19)
(-0.195309 0.109905 1.59855e-19)
(0.0992658 0.129764 -4.97489e-19)
(0.0444408 0.17377 1.22351e-19)
(-0.0297169 0.184299 3.22041e-21)
(-0.266565 0.0123529 -6.24208e-19)
(-0.0661051 0.181585 -5.27304e-19)
(0.0699172 -0.734498 3.81941e-19)
(0.539805 1.39412 2.32186e-17)
(-0.0541418 0.183263 -2.15284e-19)
(0.125238 0.0533507 2.90794e-19)
(0.133542 -0.782035 5.29237e-19)
(-0.39329 -0.112481 -1.00087e-19)
(-0.432866 -0.665952 5.09497e-20)
(-0.241577 0.0855644 -7.13957e-19)
(-0.132777 0.15652 -1.03808e-19)
(-0.0173105 0.1829 2.68397e-21)
(0.136531 -0.462527 8.28849e-19)
(-0.407457 -0.163934 -9.02408e-20)
(-0.340638 0.0294583 -2.01841e-19)
(0.303661 0.305695 -4.526e-19)
(0.0635149 0.154447 -7.11674e-21)
(0.903525 1.40844 2.38525e-17)
(-0.076544 0.121655 1.05919e-19)
(-0.360895 -0.0487211 -1.27727e-19)
(0.00555016 0.175491 -4.1547e-19)
(0.107059 0.100123 4.97657e-19)
(-0.43582 -0.285545 -8.98564e-20)
(-0.606607 -0.787926 -2.28702e-18)
(-0.372782 -0.74798 8.02796e-19)
(-0.14306 0.148477 -7.48828e-20)
(-0.0932944 0.432485 1.62073e-19)
(-0.161156 0.130154 -2.20193e-19)
(-0.169138 0.119372 -9.41433e-20)
(0.0705412 0.142502 -2.9288e-20)
(-0.0150491 0.336274 -7.90523e-19)
(-0.345845 0.419416 -2.99072e-19)
(-0.261198 0.0724566 -4.30001e-19)
(0.114562 0.0248019 2.39638e-19)
(-0.344826 -0.0225715 -1.1604e-19)
(-0.19506 -0.937341 1.15434e-19)
(-0.434088 -0.374392 -1.07155e-19)
(-0.138176 0.413779 -3.5953e-19)
(-0.0537678 0.326998 -2.20263e-19)
(0.0636978 -0.606525 5.71646e-19)
(0.136962 -0.617576 -1.46834e-18)
(0.0163845 0.170463 -2.26751e-19)
(-0.241377 0.325208 5.78212e-19)
(0.115392 -0.00791466 -1.43112e-21)
(-0.433109 0.230281 1.5279e-19)
(0.105531 0.0829931 2.81396e-19)
(0.315056 -0.202189 -5.71454e-20)
(0.799392 0.165921 4.54128e-19)
(-0.181307 0.097129 6.69874e-20)
(-0.276609 0.387446 -4.60465e-19)
(0.314242 0.171599 -9.47801e-20)
(0.791779 -0.432511 1.0576e-17)
(0.0363386 0.156743 6.12697e-20)
(0.0821541 0.118183 -6.01272e-19)
(0.13833 -0.459825 6.28453e-19)
(-0.171765 -0.597875 -3.51303e-19)
(0.0451395 -0.654464 1.41174e-18)
(-0.43153 -0.550824 -1.68478e-19)
(-0.0486654 0.168258 -6.6242e-20)
(0.0623632 -0.536865 -2.87256e-19)
(0.111299 -0.460861 7.36646e-20)
(-0.20473 0.0874123 3.13551e-19)
(-0.680801 -0.312375 -1.58083e-18)
(-0.0379215 0.169006 -1.08445e-19)
(-0.108506 0.151062 4.49125e-20)
(-0.277605 0.0556976 2.56576e-19)
(0.102993 0.0554373 3.3431e-19)
(-0.0166473 0.165799 1.61116e-19)
(0.269063 -0.150263 1.62826e-19)
(0.168041 -0.508758 -1.5909e-18)
(-0.372214 -0.396828 -5.609e-20)
(0.135409 -0.480946 5.58158e-19)
(0.0725961 -0.503987 3.98888e-19)
(0.0441669 0.148033 3.77639e-20)
(0.103545 0.00967842 1.09016e-19)
(-0.311771 -0.126279 1.30372e-18)
(-0.117844 0.145169 1.12943e-20)
(0.273867 0.280523 2.49908e-20)
(0.371128 -0.0758147 -3.08745e-19)
(-0.121925 -0.968038 3.31295e-19)
(0.0552493 -0.680545 -2.56034e-19)
(0.0571796 -0.558079 -3.41986e-19)
(0.0837136 0.103868 -4.11936e-19)
(-0.411654 -0.637717 -7.67271e-20)
(-0.0704065 0.165555 -1.47173e-19)
(-0.00662752 0.162952 7.49952e-20)
(-0.135655 0.132442 -3.78534e-19)
(0.0605758 -0.637799 2.44918e-19)
(-0.158384 0.106221 -4.90849e-20)
(0.242718 -0.333801 -7.49232e-19)
(0.964682 0.675852 1.0317e-17)
(-0.364483 -0.231773 -4.98815e-20)
(0.218433 -0.0642665 -8.01603e-20)
(0.0582823 0.128795 1.20612e-20)
(-0.230928 0.0680818 -8.44907e-19)
(-0.376175 0.373726 -3.37179e-19)
(-0.143566 0.124103 -5.4134e-19)
(-0.376387 -0.202681 7.80715e-19)
(-0.0261491 -0.54678 -3.14972e-19)
(-0.347249 -0.135214 -5.89543e-20)
(0.0761274 -0.0816754 -1.81832e-19)
(-0.332293 -0.817932 4.87512e-19)
(0.159349 -0.456929 9.09394e-20)
(0.0125819 0.153773 -9.87729e-20)
(0.096601 0.0406086 3.42682e-19)
(0.0288689 -0.475577 3.66132e-17)
(-0.326528 -0.249819 2.35152e-19)
(-0.240651 -0.446973 -4.61835e-19)
(-0.365245 -0.303731 -4.2722e-20)
(-0.16394 0.0963061 -1.32297e-20)
(0.218232 -0.797805 1.51738e-18)
(-0.184404 0.0868489 1.10768e-19)
(0.101643 -0.0224195 -4.06822e-20)
(-0.4449 -0.0377776 8.3015e-20)
(-0.337075 -0.0940975 -6.35214e-20)
(-0.225704 0.297076 6.90041e-21)
(0.0904635 -0.44853 1.01927e-18)
(0.0864884 0.0790852 1.50546e-19)
(-0.39974 0.197377 -3.17373e-19)
(-0.0535212 0.300388 -2.07934e-19)
(-0.037598 -0.907871 -9.64021e-19)
(0.426921 0.00397838 1.90308e-20)
(0.0568759 -0.0661052 -2.24665e-20)
(0.0207824 0.147879 -7.864e-21)
(-0.310266 0.0124908 -6.4252e-19)
(0.222256 -0.260448 -3.33652e-19)
(-0.056063 -0.74689 2.90185e-19)
(0.0620038 0.117418 -6.64224e-20)
(-0.207457 0.0761329 3.78209e-19)
(-0.135699 0.380651 -3.31533e-19)
(0.670429 0.157081 -1.15476e-21)
(-0.341579 -0.134445 4.8727e-19)
(0.121385 -0.45336 -5.98554e-19)
(-0.366089 -0.456018 -3.04865e-20)
(-0.272765 -0.89316 4.73934e-19)
(-0.152249 -0.391621 -5.48973e-19)
(0.0361222 0.133372 4.45084e-20)
(-0.303944 0.341757 -5.96546e-19)
(0.0503201 -0.593178 1.63401e-18)
(0.070218 -0.378209 -3.65209e-19)
(-0.218925 0.0661329 -4.20645e-19)
(-0.0856153 0.288497 1.36733e-19)
(0.212705 -0.144104 -1.04809e-19)
(-0.246301 0.0576634 -1.54117e-19)
(-0.0344714 0.153682 -3.57633e-19)
(0.140645 -0.890506 1.98811e-19)
(0.0974044 -0.0428912 -1.32674e-19)
(0.08363 0.0651827 -1.44833e-19)
(-0.380064 -0.0945721 3.13292e-19)
(-0.0251988 0.152744 -2.41357e-19)
(0.117696 -0.514742 8.45416e-19)
(-0.0534266 0.15361 -2.21287e-20)
(-0.354319 -0.546044 -9.65053e-21)
(-0.0968989 0.140739 4.56468e-19)
(-0.11367 0.130686 -3.43316e-20)
(0.0687378 0.0960863 -3.55302e-19)
(-0.00710813 0.147253 5.1734e-20)
(-0.067833 0.112171 3.62153e-19)
(-0.31135 -0.0408465 -4.22059e-20)
(0.0412683 0.12461 5.05702e-20)
(-0.257071 -0.0141007 6.21488e-20)
(-0.063011 0.151944 -1.14254e-19)
(0.277944 0.21865 3.29754e-20)
(0.0851269 0.0197428 1.21771e-19)
(-0.121458 0.124479 7.1747e-20)
(-0.0131782 -0.133236 -8.14119e-20)
(-0.170621 0.356919 7.54043e-20)
(0.123264 -0.329642 -3.27617e-19)
(-0.136346 0.110886 -4.51257e-20)
(0.0859362 -0.00691597 7.64621e-20)
(-0.129565 -0.804075 -2.64281e-18)
(0.000873393 0.143405 -2.81802e-21)
(0.187754 -0.104449 -7.46213e-20)
(0.265052 -0.0507977 4.43147e-19)
(-0.0885886 -0.376011 -2.95605e-19)
(0.0581452 -0.624135 -1.10599e-18)
(-0.340238 -0.709646 7.8922e-20)
(-0.142822 0.102774 -2.63155e-21)
(0.0729043 -0.465431 6.66247e-19)
(0.0162236 0.133196 3.70037e-21)
(-0.232058 0.0566311 -2.48022e-19)
(0.0787254 0.0443529 3.39486e-19)
(0.0684291 0.0838884 -2.72842e-20)
(0.0507006 0.107108 4.94326e-20)
(-0.11095 -0.938882 6.32498e-20)
(0.258424 -0.187667 1.68817e-17)
(-0.206115 -0.681964 -3.88775e-19)
(-0.297298 -0.0192441 -4.45878e-20)
(-0.314235 -0.785571 4.44567e-20)
(-0.349813 0.327719 6.81389e-19)
(-0.25813 0.0413883 4.78684e-19)
(-0.220225 -0.300229 -6.6932e-20)
(0.144523 -0.210607 -2.2364e-19)
(-0.315049 -0.252099 -2.39429e-20)
(-0.314471 -0.192802 -2.85305e-20)
(-0.18898 0.0695766 2.35299e-19)
(-0.171682 0.0777101 5.95805e-20)
(0.022213 0.12679 2.20506e-20)
(-0.284798 0.310783 -2.13822e-19)
(-0.15404 0.0864014 3.85027e-21)
(0.201372 -0.363632 -2.68616e-22)
(-0.312455 -0.379612 -6.45206e-21)
(-0.0136863 -0.340407 -6.00905e-19)
(0.155788 -0.47738 4.33907e-19)
(-0.23761 0.25743 7.44795e-19)
(-0.115853 -0.549549 -4.96578e-19)
(-0.023236 0.13835 -1.7364e-20)
(0.0771253 0.0094984 7.9254e-20)
(-0.300781 -0.112302 -4.21806e-21)
(0.1466 -0.17486 -2.49138e-19)
(-0.706236 -0.625445 5.61696e-19)
(0.0524324 0.0969401 7.57072e-21)
(0.0333308 0.113088 6.89827e-20)
(-0.225105 -0.869205 1.32612e-19)
(0.0779945 -0.0421732 5.30095e-20)
(-0.0398112 0.140688 7.90862e-20)
(0.965259 0.178037 5.07854e-18)
(-0.264843 -0.19914 -1.47989e-20)
(-0.0481218 0.140322 2.75735e-20)
(-0.0945258 0.127186 -3.1164e-19)
(-0.0156073 0.136221 1.98807e-20)
(-0.300564 -0.464872 8.68594e-21)
(0.0681928 0.0640576 -3.69441e-19)
(0.0729313 0.0331159 1.9543e-19)
(-0.134248 -0.302216 -9.04629e-20)
(-0.102124 0.122448 -4.36896e-19)
(0.24208 -0.359206 -8.80407e-19)
(-0.000745434 0.129512 5.85945e-21)
(-0.082974 0.267014 -1.55395e-19)
(-0.116636 0.111864 9.61481e-20)
(0.0748915 -0.015761 1.32527e-19)
(-0.291213 -0.0800467 8.37847e-21)
(0.546614 -0.602689 5.60818e-18)
(-0.0219689 -0.63127 6.28436e-18)
(-0.20887 0.0528893 -3.24646e-19)
(-0.0824203 -0.89251 -5.47409e-19)
(0.0637379 -0.255142 2.12682e-19)
(-0.244737 0.0448642 7.27272e-20)
(0.10535 -0.434594 1.66776e-17)
(-0.26451 -0.589914 4.30978e-18)
(-0.285553 -0.109008 1.68595e-19)
(0.60131 0.0187888 1.01176e-19)
(-0.284484 -0.619656 9.47658e-20)
(-0.123307 0.105534 8.50733e-20)
(0.146727 -0.100872 1.46119e-19)
(0.146903 -0.430714 1.72267e-18)
(0.0365179 0.104925 1.02706e-19)
(-0.172908 0.0696849 9.04032e-20)
(0.00545385 0.125075 -8.89518e-21)
(-0.157774 0.0780816 -1.27542e-20)
(-0.0655235 0.137868 1.27294e-19)
(-0.190872 0.0614169 1.56956e-19)
(0.0708166 -0.0311769 4.36947e-20)
(-0.210449 -0.218471 -8.62697e-20)
(-0.135776 0.0920436 4.89924e-20)
(-0.187812 -0.860587 5.73147e-19)
(-0.346714 0.128376 1.12488e-18)
(-0.452984 -0.0111358 -4.72751e-19)
(0.0603905 -0.537851 2.0004e-19)
(0.0557906 0.0791458 -1.67686e-20)
(0.0827398 -0.215848 1.2662e-20)
(0.0648837 0.053098 -1.2651e-19)
(-0.274328 -0.693352 1.49208e-19)
(0.0172903 0.114906 -1.00024e-20)
(-0.0682145 0.101068 6.12987e-20)
(-0.367168 0.285841 1.11415e-18)
(0.119722 -0.412576 4.96644e-19)
(0.131487 -0.434454 6.83663e-19)
(-0.16278 0.327165 2.02842e-19)
(0.0458107 -0.538518 -1.28432e-18)
(-0.243459 -0.136254 1.89892e-19)
(0.663209 -0.424818 -1.11908e-19)
(-0.199581 0.0520079 5.43224e-21)
(0.0349787 -0.577977 3.29369e-19)
(-0.140793 0.0846479 5.15229e-20)
(-0.235945 -0.024946 4.993e-19)
(-0.248705 -0.790972 -1.88484e-19)
(0.0214179 0.108654 -1.54121e-20)
(0.10264 -0.145356 -9.498e-20)
(-0.0149228 0.123366 1.67602e-20)
(0.0424974 0.0897597 -2.59446e-20)
(-0.040857 -0.253941 -4.61811e-19)
(-0.0360126 0.127927 1.30874e-19)
(-0.220238 0.0458595 -2.64371e-19)
(-0.0289503 0.12715 6.16584e-20)
(0.15081 -0.478473 6.03747e-19)
(-0.0989287 0.110327 -2.45868e-21)
(0.821393 0.021876 1.09847e-18)
(-0.269869 -0.316614 -3.40877e-21)
(0.0544598 0.0691098 1.00207e-20)
(-0.00879613 0.120552 1.21243e-20)
(0.00198514 -0.234255 -2.19483e-19)
(-0.0847477 0.117902 -2.93081e-21)
(0.056983 -0.0529265 2.09714e-20)
(-0.158733 -0.692077 -1.12959e-19)
(-0.299644 0.264395 -4.64268e-19)
(-0.298217 0.122504 4.11314e-19)
(-0.647724 0.224204 -4.58689e-19)
(0.0365005 -0.610739 3.64112e-19)
(-0.252408 0.0229609 -3.16214e-20)
(-0.0511719 0.12781 -1.22358e-19)
(-0.271806 -0.160883 4.85527e-21)
(0.134821 -0.453197 -5.16551e-19)
(0.103575 -0.120175 -2.34777e-20)
(0.0626265 -0.00327138 5.26024e-20)
(-0.273987 -0.20759 -4.01918e-21)
(-0.105526 0.105412 4.62831e-20)
(0.0292125 0.0963419 1.46162e-19)
(-0.235064 -0.79957 -1.02751e-19)
(-0.259594 -0.390152 9.41334e-21)
(-1.56912 0.177036 6.19126e-19)
(-0.0588379 0.126415 -1.53537e-19)
(0.0630399 0.0177382 3.22393e-20)
(0.326244 -0.724788 1.16185e-17)
(0.49747 0.0433077 3.14831e-19)
(0.0031448 0.113439 -3.23859e-20)
(0.0517608 -0.507083 9.05414e-19)
(-0.111613 -0.746708 -3.94091e-21)
(-0.269314 -0.0335232 6.71263e-20)
(0.0989907 -0.423813 3.69613e-19)
(-0.20929 0.0446511 -4.56207e-19)
(-0.118287 0.0946117 8.70628e-20)
(0.0428595 0.0810408 -1.59927e-19)
(0.0424427 -0.620493 -3.65326e-20)
(-0.236828 -0.532241 7.53462e-20)
(0.148187 -0.455182 6.16923e-19)
(-0.458191 0.0113521 2.46315e-20)
(0.0593236 0.0369146 7.08194e-20)
(0.0473207 -0.171029 1.03791e-19)
(-0.182275 0.0530699 1.00237e-19)
(-0.127295 -0.214916 3.61358e-20)
(0.00772992 0.108881 -7.94524e-20)
(0.206948 0.00702136 3.56313e-20)
(0.05636 -0.0296675 -2.91926e-20)
(-0.187709 0.301979 -3.92917e-19)
(-0.260576 -0.0933801 6.01177e-20)
(-0.0795032 -0.210769 8.01981e-20)
(-0.149001 0.0706247 -2.84494e-19)
(-0.221482 -0.611944 1.62855e-19)
(0.0308863 0.089088 5.4718e-20)
(-0.162457 0.0631869 1.73095e-20)
(-0.123931 0.0884245 8.36344e-20)
(0.0592007 -0.148976 1.7319e-19)
(-0.230116 0.0335606 -1.26597e-19)
(-0.177602 -0.73902 -5.70171e-19)
(0.0525447 0.0533374 -1.08723e-19)
(-0.0264742 0.115509 3.38867e-20)
(0.0165764 0.0993977 -1.06413e-19)
(-0.0206183 0.114001 2.20162e-20)
(-0.240902 -0.680758 3.16423e-19)
(-0.172783 0.0499792 6.03833e-20)
(-0.204996 -0.719866 -2.2447e-19)
(0.340448 1.59941 1.44416e-18)
(-0.535552 -0.104118 -1.15716e-18)
(-0.377045 -0.0528944 1.01059e-19)
(-0.0395916 0.116939 -2.39373e-19)
(-0.00898437 0.10951 1.29584e-20)
(1.52877 0.566596 -1.05055e-18)
(0.0543938 -0.00981651 1.19393e-20)
(-0.0461082 0.116642 -3.54444e-19)
(0.0191962 0.0936398 -1.12201e-19)
(-0.19179 0.0418518 1.65015e-19)
(0.056363 0.00995631 6.91901e-21)
(-0.338306 0.248967 -1.55267e-19)
(-0.134064 0.0758948 9.00569e-20)
(-0.0200546 -0.17434 4.52779e-20)
(-0.0854508 -0.732902 2.57441e-18)
(-0.219803 0.0359091 1.40848e-20)
(-0.0829906 0.10631 3.78736e-20)
(0.0513688 -0.021555 -4.6875e-20)
(0.0439221 0.0665248 7.3927e-20)
(-0.177074 -0.154314 1.05441e-19)
(-0.598378 -0.130694 4.28372e-18)
(-0.165025 0.0558469 4.46864e-20)
(-0.252734 -0.0659397 1.12678e-19)
(-0.0893093 0.102681 5.61411e-20)
(0.0280227 -0.574743 1.33064e-18)
(0.041229 -0.0460078 -2.56439e-21)
(-0.101921 0.0945162 -5.95222e-21)
(-0.137841 -0.162237 9.64473e-21)
(-0.00423003 0.1064 1.17064e-20)
(0.00537949 -0.159484 8.47527e-20)
(0.0737393 -0.100613 -2.539e-19)
(-0.208893 -0.741377 -6.64405e-19)
(0.0541889 0.0282811 6.19911e-20)
(0.0217204 -0.0569657 -2.08137e-20)
(-0.273833 0.238147 3.07619e-19)
(0.0342782 0.0763931 -1.31942e-19)
(0.0314404 -0.559922 -2.43955e-19)