/*--------------------------------*- C++ -*----------------------------------*\
  =========                 |
  \\      /  F ield         | OpenFOAM: The Open Source CFD Toolbox
   \\    /   O peration     | Website:  https://openfoam.org
    \\  /    A nd           | Version:  8
     \\/     M anipulation  |
\*---------------------------------------------------------------------------*/
FoamFile
{
    version     2.0;
    format      ascii;
    class       volScalarField;
    location    "0.95";
    object      alpha.water;
}
// * * * * * * * * * * * * * * * * * * * * * * * * * * * * * * * * * * * * * //

dimensions      [0 0 0 0 0 0 0];

internalField   nonuniform List<scalar> 
1924
(
0.0112947
0.000245546
0.0490719
0.0140069
0.000155731
0.00241672
0.00104341
2.557e-05
1.17865e-05
0.0491534
1.12869e-05
1.05452e-05
0.000191134
1.09811e-05
0.000165216
6.47242e-05
0.000394989
7.9529e-05
0.0717402
6.0377e-05
0.00186537
9.05115e-05
0.00770785
0.000519772
7.58159e-05
1.64339e-05
1.6404e-05
0.0999123
0.000363043
0.000220694
0.00291474
0.000192609
0.00565127
0.000362061
0.0649349
0.00815451
0.000419839
0.00140617
0.000276714
0.000368745
0.000593057
0.00927401
0.000631393
0.00259546
5.65878e-05
0.000100798
0.184553
2.57659e-05
0.91671
0.000520355
0.00942047
0.000192689
0.00064144
0.061061
0.000100902
0.0454765
0.170349
3.58696e-05
0.0955664
9.14161e-05
0.000679571
4.8752e-05
0.00066778
0.000104658
0.333751
1.8697e-05
2.67628e-05
5.68769e-05
0.000100799
0.00936785
0.001774
0.00011621
0.000105391
1.44446e-05
3.10482e-05
0.00172276
1.35879e-05
0.000360668
4.05866e-05
0.000703366
0.000187317
1.63221e-05
4.59593e-05
0.000129809
0.0106223
0.000188882
0.1001
0.000333697
0.383922
0.00102093
0.000137701
1.62704e-05
0.0001008
0.000438988
0.000161949
0.99958
1.17208e-05
0.000192172
2.33006e-05
0.00194906
0.00453282
0.000145846
1.88584e-05
1.66944e-05
0.00123032
0.000570537
0.000102288
0.000416676
4.3268e-05
0.00015574
1.17971e-05
0.000100798
0.00133699
2.44897e-05
3.89282e-05
0.00012777
0.0296783
0.000245577
0.00232008
2.30343e-05
0.0157214
1
0.000509617
0.00012772
2.54197e-05
0.000986931
0.00166942
0.000571105
0.000100848
1
1.15608e-05
0.000103755
0.000117949
4.70605e-05
0.000360074
0.00123543
0.00148368
0.00010081
0.00054609
0.00132794
0.0327167
2.67628e-05
0.251685
0.000410007
0.0116937
1
0.0003371
0.00181888
4.39214e-05
0.00548438
5.19389e-05
1
0.000959044
0.000994416
0.00825838
0.0012222
1
0.00723041
1.16075e-05
0.00799909
1.4528e-05
0.000159663
0.0010188
1
0.000108669
0.00123543
0.00122411
1
1.25855e-05
0.000437579
0.000100803
0.00253485
0.000564355
2.51528e-05
0.00539021
0.000399557
9.71334e-05
0.00151477
0.00843731
0.00354607
0.000122898
0.000308148
1.37623e-05
0.000407711
1
0.0326394
0.000929603
0.000128329
1.17971e-05
1.34955e-05
0.000320776
0.0013118
1.16075e-05
0.00356459
0.000134261
1
2.5128e-05
0.000365873
0.000191731
0.000136358
0.0493585
0.00908723
0.00120536
5.30117e-05
0.000100878
0.000125543
0.00355195
0.00456739
0.00021961
0.00108179
1
0.000103755
0.000541836
0.000128464
6.47725e-05
0.000571105
0.000226833
0.000320776
0.0024083
0.000571159
0.000470522
0.000852577
0.00122411
0.000532881
5.51485e-05
2.45071e-05
1.96415e-05
0.000551914
0.000134261
0.000124567
0.000101691
5.0822e-05
0.000193182
0.00194854
2.52102e-05
0.00871943
0.000502947
0.000701273
0.000801978
1
8.19472e-05
3.09561e-05
0.00021527
0.00456736
0.000109879
0.000161949
1.09909e-05
8.05425e-06
0.000154856
0.000367812
0.229004
1
0.00106768
0.000118948
5.13905e-05
0.00054635
0.000166098
2.42947e-05
0.000436321
0.000273826
0.000200238
0.000206833
1.99352e-05
0.000400342
0.00071462
0.000236442
0.021363
0.000522782
0.000101691
0.251687
0.000474213
3.6912e-05
0.0001008
2.45064e-05
9.34012e-05
0.00018725
1.05452e-05
2.86191e-05
0.000135075
0.000131509
0.212826
1
7.19542e-05
0.00132407
0.423046
1.4113e-05
0.000329231
1
1.14315e-05
2.42853e-05
0.000199899
0.000247274
2.4191e-05
6.39352e-05
0.00362755
0.0103883
0.00054635
0.00456739
0.000571034
0.000365801
1
0.000144879
5.94421e-05
0.000184144
1.07699e-05
2.79452e-05
0.000263126
0.000272161
2.44518e-05
7.7397e-05
0.00210373
0.0124507
0.00133735
0.000236353
5.72644e-05
0.000248727
0.000124179
1.09947e-05
0.000173872
0.000126902
0.000151987
0.00275377
0.00119288
7.60103e-05
1.64476e-05
0.000241085
2.42859e-05
8.58878e-05
4.01939e-05
0.000518834
0.000120826
3.82184e-05
0.00350416
1.09947e-05
0.000571034
1.89005e-05
9.60116e-05
0.000212293
0.00133999
0.000224856
0.000316847
2.7373e-05
6.44903e-05
0.00456724
0.00054635
0.000240954
0.000118118
2.52709e-05
0.0117739
5.06163e-05
0.00108923
0.16269
0.039593
1.38546e-05
0.00456693
0.000367812
1
1.17653e-05
2.57232e-05
0.901164
0.000464535
9.67532e-05
5.68627e-05
9.80245e-05
0.00112093
0.00241471
7.36898e-05
0.00398042
0.00133799
0.000921335
0.00035109
0.000127953
0.000234836
6.31108e-05
1.62704e-05
0.00012777
0.000243409
0.000506828
2.92665e-05
2.44853e-05
7.18811e-05
0.000367812
2.42788e-05
0.000454294
0.000162998
0.000416387
0.000570127
8.73444e-05
1.62704e-05
0.00136788
0.0074582
0.00347602
2.44438e-05
9.1724e-05
0.00132646
0.000106373
0.000168977
2.91606e-05
0.000532002
0.000242054
1
0.000570166
0.00460959
0.00017971
1
9.08395e-05
0.000183297
4.65206e-05
0.000138534
0.000454444
4.5791e-05
0.00339107
1.1628e-05
0.00129062
0.00133902
0.000710772
0.000186455
1.37691e-05
6.15878e-05
1.19767e-05
1.39945e-05
0.00126703
0.000187839
0.00456724
0.00112069
1.40937e-05
0.000557987
0.000174878
0.000202972
1.63447e-05
9.80245e-05
0.000186737
2.0343e-05
0.000201623
0.00133735
1.62704e-05
8.3814e-05
0.0014984
0.00133841
0.000327855
2.44518e-05
0.000356037
3.06538e-05
0.0483103
2.38485e-05
0.00369605
5.12757e-05
0.000570359
2.6116e-05
9.48251e-05
0.000419653
0.00229407
0.000750629
0.000541522
0.000218773
2.87557e-05
0.000416387
4.78764e-05
0.000204652
2.62155e-05
0.000400463
2.8287e-05
0.000358947
0.00331565
0.00460002
9.46584e-05
6.49018e-05
0.00132965
0.000485989
9.24737e-05
0.00112025
0.00284989
0.000151987
0.000202679
0.00310958
0.000384586
0.000247735
1.59966e-05
2.38485e-05
0.000240954
2.39631e-05
0.00040604
4.11368e-05
2.92465e-05
2.83044e-05
0.00112133
0.000510863
1.68364e-05
3.43195e-05
0.000550964
0.00140722
1.67795e-05
0.000615766
1.25147e-05
1.40937e-05
0.00018742
2.38485e-05
9.12674e-05
0.000436712
0.000224463
1.40929e-05
0.000223331
2.46976e-05
7.43418e-05
0.00444541
0.000899372
1.42713e-05
0.000237992
0.00287511
3.82762e-05
0.000370584
0.00018725
9.11739e-05
3.48495e-05
7.65095e-05
6.59255e-05
6.33282e-05
2.86191e-05
1.98713e-05
9.18899e-05
0.000855373
1.43828e-05
0.00035933
0.000135906
0.00128286
1.79965e-05
0.000153074
0.00231682
0.000796772
0.000829514
0.000902648
0.000159858
0.002919
0.00406256
0.00240353
0.000103788
0.00101856
0.00277533
0.000357385
0.00112101
2.82894e-05
0.00165048
0.0165989
0.000567543
0.000237985
0.000742336
0.000153051
0.000103735
2.38485e-05
0.000516841
0.00110106
6.20878e-05
0.000114927
0.000237472
0.00069213
0.00343259
0.00836469
0.00949761
0.000657339
0.000426724
0.000590427
0.000644445
0.00139941
0.000125859
2.61867e-05
3.76534e-05
0.000400463
1.15504e-05
0.000151987
3.00849e-05
0.000324859
0.000173669
0.000754834
9.51079e-05
0.000488984
0.000230001
0.00574958
0.00185079
1.40929e-05
0.0017827
0.000133749
5.58972e-05
1.27347e-05
0.000229876
0.442721
0.020716
1.4085e-05
0.0678309
0.000188168
5.22231e-05
0.00112101
0.00227084
0.235123
0.146905
0.0260138
1.40929e-05
6.11899e-05
0.000565709
0.000103089
0.00452622
0.918522
1.52238e-05
0.00121859
0.000272542
0.00051484
0.000111932
1.6409e-05
0.000366816
3.76534e-05
0.215038
0.00112114
0.000146257
0.00445908
0.000546709
7.70129e-05
6.65836e-05
0.000905579
0.00118624
0.91887
0.000111862
0.00016524
0.000191082
1.16384e-05
5.38112e-05
6.49457e-05
0.000151987
0.0124067
0.000175812
1.67594e-05
0.0047298
0.000119874
0.00110107
0.000562595
0.0119078
0.000113613
0.922653
0.00110107
0.0361993
0.00107999
0.000198922
6.53261e-05
0.00057903
0.00053598
0.00107002
0.000542707
1.44447e-05
0.000115269
1.62648e-05
0.00107091
9.55468e-05
0.00196318
0.000514411
0.02889
0.00128867
0.00741163
0.000368668
0.000386821
0.000364922
0.00111575
0.00419213
9.1636e-05
0.0319163
0.000152666
0.000436244
0.000368668
0.000258418
0.000283137
0.000241941
0.00218226
0.00118064
7.38876e-05
0.000397004
0.000375677
0.000413876
1.61142e-05
0.00021882
1.61437e-05
3.44165e-05
0.0260411
0.0189636
1.40929e-05
1.41152e-05
0.00010452
0.00010452
1.23985e-06
2.63562e-05
4.21142e-05
0.925468
1.40957e-05
0.0123341
9.55658e-05
0.000542986
1.18736e-05
0.000518945
0.000366462
1.7628e-05
0.00541944
0.00050135
2.10919e-06
0.000132119
0.000195488
0.0101576
0.00106961
0.000412995
0.494093
0.00107999
0.000733238
6.01068e-07
1.41251e-05
0.000111699
0.00241851
0.0322902
0.000674731
0.999996
0.000515631
1.66258e-05
0.000467745
0.00287801
1.56048e-05
0.511649
0.000471549
0.000253121
0.000387593
0.0280578
0.00023198
0.00597164
0.00012772
0.918959
0.000461367
0.000218755
0.000309548
0.00911255
0.000435068
0.000131285
0.00010452
6.64999e-05
4.24341e-05
0.00105434
7.76132e-05
0.0116102
0.216227
0.000368481
0.000210497
0.598028
1.12692e-05
0.0481938
0.00118064
0.0355213
0.000112075
0.000581232
1.23985e-06
0.000469313
1.86052e-05
0.000714425
0.000339647
0.00129966
0.000393649
0.918959
1
7.95742e-05
0.000153051
0.000301148
4.72056e-05
0.000206493
3.26376e-05
0.00533508
4.61196e-07
2.11025e-06
0.0123653
2.6928e-05
0.000254171
9.26302e-07
0.0287595
0.000581109
0.000769234
1.41152e-05
0.000623998
4.64535e-07
0.0124882
0.000898632
0.0101618
0.000364922
1.86998e-05
0.000704694
0.000542904
0.000152896
2.16656e-05
0.000747436
1.98469e-05
0.00268143
0.00560467
0.000405033
1.92458e-05
0.000168444
9.08299e-06
0.000199251
1.41256e-05
0.79336
0.00105349
5.75837e-05
0.000356749
0.00241397
1.792e-06
0.000424199
0.000236402
1.61706e-05
0.00130226
0.00025481
0.000161173
0.000971228
0.000179206
1.50215e-05
0.00592439
0.903198
0.00183474
0.0322589
4.13434e-05
0.0376227
1.21868e-06
0.000202303
0.0219948
0.00130326
1.86957e-05
0.0146202
3.74486e-05
2.15554e-05
1.92306e-06
8.49385e-05
0.000175589
0.0138409
0.000254171
0.000218175
0.000128134
5.81574e-07
5.05128e-05
5.2153e-07
0.000372966
3.93267e-05
0.000695833
0.999998
0.000235493
0.922609
8.55592e-06
4.64535e-07
1
0.000417405
8.55592e-06
5.05128e-05
4.43641e-05
4.19881e-05
1.8754e-05
0.000282666
0.0486702
0.00044091
0.000255033
0.000896847
0.0515008
0.00229414
0.544249
0.000262563
3.85987e-05
1.62494e-05
0.000908804
0.000205988
0.0101612
0.000161173
0.230128
3.4587e-05
0.120611
0.0506718
0.000253659
0.000842514
0.910993
2.57203e-05
1.77774e-06
0.00186502
0.000213454
0.901099
0.943679
0.00104751
0.000293813
5.33189e-05
4.23165e-05
0.000825237
0.000472491
1.34524e-06
0.000158844
0.000535836
4.02375e-05
3.69824e-05
1.77774e-06
0.000208687
0.873539
1.79464e-05
1.99011e-05
1.45432e-05
1.42859e-05
0.000255147
0.0101677
0.000126462
0.0719052
0.000352094
0.00103761
0.81277
5.81574e-07
3.44259e-06
1.98562e-05
0.0148194
8.55592e-06
1.983e-05
2.02056e-05
0.00109795
2.4096e-05
1
0.827337
0.00022077
0.0168859
4.02949e-06
0.00233612
0.000371021
0.000204455
0.000178315
3.57188e-05
1
0.000406997
0.123947
0.000218065
0.000588028
1.8754e-05
0.000287743
1.76921e-06
0.000101741
0.000169355
0.00041181
0.000908804
5.20363e-05
3.8336e-05
4.19607e-05
0.000293303
0.000557832
0.000440294
1
0.000766339
0.452474
0.436902
0.000471031
4.86085e-06
0.000904801
0.206734
0.000256317
0.0785278
0.000107554
0.0492069
5.64265e-05
3.79156e-05
0.58424
0.28112
0.00400396
0.0737215
4.08973e-05
0.261187
0.00038945
5.08601e-05
0.000443562
0.437444
0.000158844
1.63114e-05
3.7266e-06
0.00064608
0.107427
0.000227299
0.00279605
0.00132859
4.66303e-05
4.53713e-05
0.00107272
0.00154671
0.000745899
3.74402e-05
0.00062073
0.000255147
0.00139133
0.0103599
0.00333551
4.38094e-06
3.82696e-05
2.03593e-05
0.000739268
0.00373097
4.19767e-05
0.00118681
0.000158844
0.00022073
1.77084e-06
4.19881e-05
0.000825672
0.00042047
3.69972e-05
3.8226e-05
0.800804
0.000158922
0.11859
0.0423868
3.93267e-05
5.08601e-05
5.11554e-05
0.000255698
0.000542681
1.44902e-05
0.0184211
1.77307e-06
0.572107
5.22107e-05
0.000673247
1.44398e-05
2.4102e-05
0.000617511
0.000597643
0.000483709
0.000224313
1.98588e-05
1.72272e-05
1.98845e-05
0.999999
0.00113081
0.000227178
0.000431864
0.00333144
0.000701419
1.35835e-05
0.000531853
0.395311
0.040242
9.87807e-05
3.80815e-05
0.826033
0.735318
0.00143193
0.000544724
0.0812147
1.11965e-05
0.528196
0.000257907
0.00054635
3.58964e-05
5.13563e-05
0.000613606
0.000766249
0.00150053
0.00150053
0.000158844
1.76921e-06
1.68298e-05
0.526361
9.84563e-06
0.000535194
0.000184262
1.35292e-05
1.65334e-05
6.69371e-05
6.59458e-05
0.00149244
0.182244
4.2442e-05
0.000548031
0.888903
0.0011431
8.79961e-05
0.000335246
0.000766164
0.528322
0.000180347
0.416587
1.85154e-06
7.55618e-05
0.00149244
0.00103125
0.36988
7.34412e-05
0.000248829
0.000333924
0.00396536
0.000618276
0.000341909
0.736357
0.986298
0.00224976
0.000251656
0.00165034
6.75875e-05
0.000262914
0.00320411
0.000114095
0.00417523
0.00382902
3.1363e-06
0.000803668
0.000256633
0.000554612
0.001064
0.802188
0.000176697
1.77307e-06
0.0111514
0.00422596
0.00150053
0.999466
0.00277194
0.00110241
3.63769e-05
0.00148623
0.377859
3.60892e-05
0.598031
0.737679
2.20646e-05
0.986067
3.17278e-06
1.46147e-05
4.2625e-05
3.1398e-05
0.000105192
0.984171
0.000104209
1.44902e-05
1.45468e-05
0.00143829
0.00087789
0.000179814
0.00434711
0.000617252
7.25489e-05
3.79127e-05
0.000276786
0.000257591
6.87309e-05
0.000253
0.000132847
0.000765527
0.981705
0.00194707
0.000104209
0.922656
0.875958
0.411946
0.00011037
0.00434713
0.000100782
0.0021503
0.0037698
0.970885
0.00118409
0.000766333
0.000274542
0.000134024
1.66419e-05
1.98504e-05
0.985607
0.000226702
0.270253
0.00164993
0.00101954
0.902261
0.00434713
3.44849e-06
0.776647
0.822691
0.0013034
0.000326587
0.000147049
1.95758e-05
0.00782801
0.0027682
0.856312
0.000544381
4.24542e-05
0.00173188
0.00376087
1.32983e-05
3.65202e-05
3.70854e-05
0.0720629
6.80332e-05
0.00792255
0.00034101
0.00110474
0.36988
0.000337859
3.75404e-05
0.00142628
0.00434724
4.27626e-05
0.00115135
0.00499597
0.00102996
0.000101557
1
0.000330935
4.30049e-05
0.964942
0.000142071
0.00027689
0.00080224
0.00106911
0.000750982
0.00172531
0.000204587
1
0.000276953
0.000134799
0.00130274
1.6911e-05
0.376526
7.26568e-05
0.00456742
0.310424
9.92454e-05
0.000897777
1.46257e-05
0.175386
0.00457689
3.46429e-05
0.000801765
0.00183454
0.624421
0.000276853
0.645629
0.715441
0.781203
0.00435162
1.60592e-05
0.000374599
3.46429e-05
1.48328e-05
0.000107906
0.000135389
9.92371e-05
0.00562331
0.000228041
0.00121523
1.67147e-05
0.000140155
0.00118409
0.981773
0.98177
8.2176e-05
0.000345189
0.00199604
4.35968e-05
0.0207639
0.00120259
4.30049e-05
0.000140155
0.0036652
3.87885e-05
0.00353982
0.000798734
0.52984
1
0.00200751
5.22855e-05
0.00130795
0.369914
0.985371
0.000815535
0.986304
0.00277332
0.00130795
0.00107018
1.68282e-05
0.00134275
0.000793986
0.857038
0.276665
0.00049802
0.000120704
7.03657e-05
0.00138352
0.00204479
0.499397
1
0.000119262
0.000117013
0.912403
0.000135576
0.0038923
3.75404e-05
0.000165103
0.000212266
1.11952e-05
0.000140155
0.000354668
3.94509e-05
1
0.000870938
0.986282
0.000158838
0.000224512
0.000466181
0.000208889
0.00397938
5.92346e-05
0.000807862
1
0.000126777
0.000137277
0.000668707
3.96919e-05
0.00417456
0.00204486
0.000109677
0.000567359
0.00422259
0.562523
0.00100484
1.62805e-05
1.32241e-05
0.757548
0.000117513
0.000203061
0.72426
0.000117567
4.01e-05
0.000138716
0.000778397
0.000216302
0.00381731
0.000117106
1.53994e-05
0.0646083
0.000301249
0.000276214
0.00952387
0.000431222
0.000318157
0.986302
6.31117e-05
0.986298
0.000276786
0.00434712
0.00434713
1
0.00205169
0.000116706
0.369879
0.00199787
4.58599e-05
0.224399
0.000298884
0.000197749
0.000359399
1.91172e-05
1
0.00434713
0.000118769
0.000345835
0.00102168
0.970885
0.730662
0.981773
1
0.000116868
0.981773
0.000287682
7.24967e-05
0.000544304
7.76188e-05
9.27006e-05
0.00198253
0.274705
0.00046828
0.00105327
0.00286435
0.000167732
0.000331154
1
0.00434724
3.75404e-05
0.702228
0.000230456
0.148458
0.901032
0.0435962
0.000142951
0.981782
1
0.525021
0.133339
1.7448e-05
1
4.02365e-05
1.11929e-05
0.00499597
0.160139
7.3978e-05
0.00367405
0.000621265
0.894231
0.0652001
0.00020248
0.607407
0.00026861
0.000116815
1
0.0043516
0.0890512
0.000338798
0.919834
0.000251981
0.000339118
0.000126699
3.06621e-05
0.000368922
0.000127531
0.00388833
6.41283e-05
0.124186
0.000117335
0.00337678
0.000187419
2.07906e-05
0.000194005
0.853278
0.003749
0.567407
1
0.117717
1.6911e-05
1.65101e-05
0.000867388
6.74615e-05
0.0001069
0.756671
8.96865e-05
0.00012658
0.00433315
3.95123e-05
0.000347189
0.986304
0.000760924
0.000503613
0.000158979
0.000372694
0.000359346
0.00392848
0.140585
0.000263715
0.00106955
0.094979
0.000117542
2.73519e-05
0.00226173
0.000282144
6.49311e-05
7.69921e-05
0.13848
0.000157097
0.000329089
0.000768416
0.304169
4.64679e-05
7.03269e-05
0.000118384
0.00367268
0.00499597
0.000343294
0.000498191
3.85048e-05
0.000276921
4.90906e-05
0.000370589
1
8.06966e-05
1
0.000276214
0.986221
0.000117542
1
0.000593427
0.000371439
0.00117802
0.000580487
1
4.63444e-05
9.54217e-05
1
0.981773
0.979895
0.100068
0.000642034
0.000190306
1.74163e-05
1
6.28989e-05
0.000389091
0.858438
0.000123076
0.98002
4.64294e-05
0.000346919
9.12848e-05
4.61562e-05
1.11936e-05
0.979983
0.000612318
0.052445
0.00223774
0.000346919
4.88817e-05
4.09029e-05
1
0.148476
0.000372312
0.00322925
0.129948
0.0112549
0.133324
2.95364e-05
9.43745e-05
0.165115
0.000117542
0.000166413
0.0414133
4.64679e-05
0.000104416
0.757065
0.00962887
0.0957496
0.000558546
0.00389281
8.34498e-05
0.000334421
1.1208e-05
4.61759e-05
0.000371976
0.323455
0.918975
0.91896
0.117776
0.000191224
0.000336787
0.000416234
0.000173884
0.000143098
1
0.000793235
0.000184841
2.81287e-05
0.000618943
0.957974
0.985086
1
0.13848
0.00027702
0.0143002
0.981771
0.000322098
0.000100492
0.000236786
0.000798319
4.10463e-05
0.140377
0.140628
0.000871026
0.0038553
0.0969511
0.000190626
0.103619
4.72527e-05
1.14163e-05
1
0.000798497
0.000491173
0.00122649
0.986304
0.000501071
0.000273578
2.83012e-05
2.80397e-05
0.000111222
0.000331888
0.000173861
0.00025836
0.000273437
0.857128
0.000251368
0.000314272
0.00133976
0.986269
0.000363534
0.138203
0.000276214
0.994315
0.0039054
1
0.000810063
0.000266248
0.000182906
2.80397e-05
0.00061121
0.000107184
1
0.980958
0.00220986
0.000282727
0.000276188
0.000113169
7.99743e-05
2.67398e-05
2.80397e-05
0.000243965
2.73213e-05
0.00226481
0.00225883
0.000562133
0.794921
0.000528307
0.00182542
0.000244715
1.94179e-05
1.11929e-05
0.000110611
0.0146594
0.000200697
1
0.000254377
0.106662
0.844163
0.000267311
0.000210961
0.981771
0.000251368
2.80365e-05
8.95035e-05
0.000780102
1.8271e-05
0.000682362
0.00123371
0.000273205
3.12695e-05
0.000793235
0.00181705
8.20392e-05
0.000264509
1.88513e-05
0.000125037
0.752349
3.61678e-05
0.000200555
2.61391e-05
0.00182542
7.0565e-05
0.000251368
0.918026
0.86328
0.000250853
1
0.000349701
0.000250096
0.000809208
3.60963e-05
2.82122e-05
0.00508355
0.000243944
0.000726948
0.000132959
1.14238e-05
6.32861e-05
1.15792e-05
0.000344384
1
1
1.0343e-05
0.000197408
0.000466074
0.762012
0.00467581
0.0162054
0.00123483
0.000131706
0.000113169
0.016702
0.000221661
0.103134
0.112392
1.07838e-05
7.80916e-06
7.87155e-06
2.63002e-05
0.00182542
0.00181703
1.11936e-05
0.00176484
0.0161777
0.0177218
7.80332e-06
0.862789
7.68997e-06
0.000131667
2.63002e-05
1
1
0.000115782
8.09809e-06
0.000248733
0.000720961
0.000244246
0.000132106
9.85851e-05
0.0146413
0.000114564
2.73213e-05
0.0012576
0.00022417
0.0192438
0.0017924
9.87993e-06
0.000530865
0.0252763
0.0170056
0.000579225
0.0162053
0.000572124
0.00119441
0.000162239
0.00114054
0.000131257
0.00068002
7.71141e-06
0.000214932
0.0188038
0.0198068
7.69002e-06
0.0964775
0.0108419
0.00333202
0.000204925
0.822292
0.000135389
0.0211251
1.02454e-05
0.000135159
0.00166039
0.00148489
0.000832693
0.000832782
0.000830034
0.0143745
0.00166039
0.0161415
0.0235913
0.00144504
0.000131706
0.000121815
2.63076e-05
0.00166039
0.0283
0.0118669
0.00683583
0.000621175
0.000174803
0.0023806
0.00054612
0.000140782
8.03662e-06
0.0015622
0.0015622
7.68997e-06
0.000738478
0.00173095
0.00167176
0.0047278
0.00346122
0.000573166
1
1
4.71839e-12
1
0.0018811
1
0.0680877
0.0680877
0.000621105
0.0491597
0.0491122
0.12524
0.0603639
0.0680864
0.116719
0.106401
0.000171553
0.000604455
0.000828834
0.00173424
0.00173095
0.000830054
0.000830052
0.00476169
0.0627443
0.0628648
0.0583465
0.0583397
0.0603189
0.0464991
0.000830055
0.00446412
1.29166e-05
0.00103889
0.000319284
0.000136194
0.758519
0.761675
1
0.244385
0.903168
0.798443
0.973345
0.00388339
0.999651
0.986302
0.932209
0.999998
1.26977e-05
0.995195
0.197566
0.761741
0.985229
0.00191772
1
1
0.00389078
1
0.0610494
0.00412181
0.987674
0.598027
0.598027
1
1
1
1
1
1
0.000558905
0.59727
0.999065
0.970887
0.970884
0.970887
0.999988
0.00250385
0.000202303
0.970883
1
1
1
0.997175
1
0.234985
3.07979e-05
0.912335
1
0.999998
0.833092
1
1
1
1
1
1
1
0.999998
0.00885463
0.000851041
0.970885
0.000308873
1
0.970887
1
0.970382
0.000509617
0.970887
0.00398615
0.968718
0.0364179
0.00670049
0.970885
0.000509441
0.950652
0.999999
0.916943
0.000187842
0.461777
0.00399208
0.598027
0.94104
0.000544724
0.941219
1
0.833092
0.00667606
0.00398042
0.000544931
1
1
1
0.00315333
0.000186595
0.846988
0.000209758
0.00139942
1
0.00349679
0.000535934
0.341199
0.000487663
0.327879
0.796337
0.970883
1
0.000113856
1
1
0.00054609
)
;

boundaryField
{
    patch0
    {
        type            zeroGradient;
    }
}


// ************************************************************************* //
