/*--------------------------------*- C++ -*----------------------------------*\
  =========                 |
  \\      /  F ield         | OpenFOAM: The Open Source CFD Toolbox
   \\    /   O peration     | Website:  https://openfoam.org
    \\  /    A nd           | Version:  8
     \\/     M anipulation  |
\*---------------------------------------------------------------------------*/
FoamFile
{
    version     2.0;
    format      ascii;
    class       surfaceScalarField;
    location    "0.95";
    object      alphaPhi0.water;
}
// * * * * * * * * * * * * * * * * * * * * * * * * * * * * * * * * * * * * * //

dimensions      [0 3 -1 0 0 0 0];

internalField   nonuniform List<scalar> 
2805
(
0
0
2.4673e-07
0
0
5.6409e-07
-9.63323e-05
9.88554e-05
5.75373e-06
-7.31992e-06
-2.50636e-08
3.798e-08
0
2.59218e-05
4.46484e-06
-7.50455e-07
1.59167e-07
4.09582e-06
2.61942e-07
-1.27716e-07
-0.000119648
2.55053e-05
1.7448e-08
2.3826e-07
1.3965e-07
-1.13026e-07
-6.68304e-07
7.27723e-07
-1.43834e-07
3.61137e-08
8.30013e-08
1.15357e-06
-2.31838e-06
-4.0864e-07
3.96321e-08
2.17292e-06
-9.49652e-07
-1.94504e-08
1.12044e-06
-1.89947e-06
-3.87324e-06
1.87419e-06
-3.54806e-08
6.63372e-07
-2.38527e-06
2.14421e-07
3.22626e-07
-9.25299e-07
1.24282e-06
1.28655e-07
2.55811e-06
-8.24204e-06
2.82472e-06
3.17673e-06
-3.52928e-06
0
-4.97603e-07
-1.49061e-08
2.08281e-07
-1.94349e-07
-3.07905e-10
-1.43417e-08
6.0335e-05
-5.27938e-05
-1.01844e-06
7.32774e-08
-2.76029e-08
3.82426e-08
-1.16886e-06
9.92778e-08
3.93767e-07
6.4821e-07
-3.15071e-08
5.13324e-07
-1.5432e-06
-1.74055e-06
-2.71814e-08
6.28829e-06
-6.4108e-07
-4.4671e-07
1.02094e-05
2.54716e-06
-4.04153e-07
-6.99287e-06
-2.14567e-07
2.85738e-07
5.22925e-07
-1.16827e-07
1.92004e-07
-1.19185e-06
-5.41086e-08
-9.76088e-07
2.35453e-07
-2.1185e-07
-6.57601e-06
2.30853e-07
-1.27327e-06
6.89678e-07
9.43286e-07
-3.33593e-10
-9.20849e-07
8.92615e-08
-4.6642e-08
-4.26438e-08
1.39613e-05
-1.32909e-06
-1.35606e-05
-2.22892e-07
6.11857e-07
-2.87333e-07
-0.000156441
-5.35214e-05
0.000257099
1.71109e-06
8.74016e-08
-1.82088e-06
1.02995e-05
-7.08882e-06
2.54506e-06
4.25018e-07
2.54505e-06
-7.78081e-07
0.000195636
-0.000134974
2.67183e-07
-1.40789e-07
-1.26717e-07
-7.4126e-05
-4.39695e-07
7.9553e-07
0.000127675
-0.000105749
-2.6354e-07
4.83939e-07
-7.92477e-08
1.47113e-08
-1.2102e-06
1.8614e-06
-6.38352e-07
-4.17028e-08
1.81599e-07
-5.23398e-07
-1.45665e-07
5.58814e-07
-3.17579e-05
0.000324792
1.62725e-07
5.17276e-07
-9.01723e-07
-1.37687e-07
1.02333e-06
-5.42563e-07
5.50033e-08
6.16309e-08
-1.37224e-06
-5.071e-07
-2.89774e-06
2.51042e-06
2.2173e-06
2.46304e-07
1.94431e-06
-4.55092e-07
-1.3814e-08
7.72495e-08
6.13512e-08
-3.86492e-07
-3.65722e-06
6.30879e-07
5.68328e-07
3.8059e-07
-1.75915e-07
-1.8273e-06
8.66446e-07
1.44969e-09
-2.54662e-07
-1.6763e-06
2.19717e-06
-1.56314e-06
-6.516e-07
3.35228e-08
-3.08728e-08
2.76404e-09
-4.36557e-07
5.0346e-07
5.04878e-08
1.62927e-07
0
-8.97535e-07
-2.17473e-08
8.06786e-05
1.15579e-07
-6.53857e-06
-5.13965e-05
-4.38049e-07
-6.75161e-08
4.91101e-07
-4.25996e-06
-2.44736e-08
6.05757e-08
2.20513e-07
2.76549e-06
0
-1.05251e-06
-7.39429e-07
2.20988e-07
0.000681555
-0.000712972
1.52062e-07
2.15242e-07
1.29601e-06
8.67661e-07
-3.17213e-07
5.22115e-08
-5.95781e-06
2.78084e-06
-7.22485e-06
6.76712e-07
-3.08828e-06
-7.31913e-07
-2.65834e-07
-7.46843e-08
4.98045e-08
-7.29413e-08
-7.6166e-07
3.65697e-06
-3.47482e-06
8.37064e-07
2.6006e-06
5.97558e-08
-1.20678e-07
7.23709e-08
1.09221e-06
-5.10876e-07
3.55735e-07
8.21382e-08
3.81054e-07
1.14362e-08
1.19489e-07
-2.42144e-08
8.58209e-08
3.31286e-07
1.59458e-07
-4.0515e-08
-1.4257e-07
9.21497e-08
-7.7169e-08
1.07842e-07
5.38401e-08
2.51825e-05
-1.14931e-07
2.81027e-06
-1.17729e-06
4.9839e-07
2.11609e-07
-1.95873e-08
-1.16385e-05
2.934e-05
-0.000343495
0.000344458
-9.62872e-07
4.0347e-07
3.89664e-08
-4.96391e-07
3.4539e-07
-1.30549e-06
3.09788e-06
4.38862e-07
-3.72984e-06
1.89917e-06
1.35408e-06
-3.17847e-06
3.57096e-07
-0.000195474
0.000256346
-6.08725e-05
1.03074e-07
-1.18782e-07
7.58937e-07
2.84606e-07
-5.17845e-07
1.58175e-07
2.44171e-07
-2.16032e-06
3.5817e-06
1.928e-07
3.43931e-08
0
4.79974e-06
-1.58536e-06
2.64385e-06
4.70063e-05
-2.71895e-07
-3.07541e-06
3.11974e-06
0
0
-1.39339e-05
3.57088e-06
-0.000146167
-4.93066e-05
-3.19491e-07
-1.37267e-06
2.49862e-07
-4.72374e-08
-4.77143e-06
1.96555e-07
-1.20374e-06
8.02973e-07
-0.000343495
-4.0433e-08
-7.46576e-07
5.5528e-07
6.02246e-07
8.19355e-06
3.05052e-06
-5.30773e-07
0.000321507
2.2951e-05
-1.30217e-05
-4.14008e-09
8.40847e-08
2.94346e-06
-1.73349e-05
1.0087e-05
-1.17446e-07
5.96148e-08
4.81834e-07
4.48468e-06
-0.000338071
-5.42389e-06
9.33978e-07
-2.06425e-05
1.97129e-05
4.15369e-06
3.70269e-06
-5.23424e-07
0.000132135
0.000189372
5.84065e-08
-1.10103e-07
3.07389e-07
-7.62705e-08
4.90623e-08
-3.0753e-06
1.33363e-05
-1.50794e-06
-1.93292e-06
1.54606e-07
7.82322e-06
-7.5564e-07
3.75705e-07
6.7084e-07
-9.07562e-08
1.87965e-06
1.09321e-08
4.95635e-07
-1.20885e-05
-7.45134e-07
5.78861e-06
7.05141e-11
-1.33908e-07
1.07285e-07
4.54547e-07
-1.38806e-06
-8.58439e-08
-3.15518e-08
9.99224e-08
4.89683e-07
5.00059e-09
0.000127601
-0.000181122
0
-3.11653e-05
-6.69379e-06
2.62739e-06
-1.94874e-07
2.01538e-07
-7.88927e-09
-8.36704e-08
-2.81768e-08
8.43384e-08
5.22509e-07
-1.03749e-06
5.07162e-06
2.12436e-07
-2.4267e-07
1.31295e-05
8.33157e-07
-2.71432e-07
-0.000338071
-9.12371e-08
1.08439e-07
-1.01933e-08
1.10773e-07
-2.259e-07
-1.40269e-07
3.17634e-07
-5.07697e-07
3.55303e-07
4.8425e-05
4.61941e-06
-2.53629e-07
5.45958e-06
-8.34363e-08
-1.65585e-07
-1.92953e-07
1.38782e-05
-9.98071e-06
-9.02147e-07
-1.33432e-06
-5.21771e-06
-0.000331585
-6.48613e-06
4.00462e-07
6.22515e-06
-3.51568e-06
-2.74326e-06
6.88978e-07
1.45e-07
-2.86051e-08
2.16875e-06
1.3985e-06
2.92996e-07
6.99994e-07
7.09776e-06
-2.19617e-06
-9.81037e-07
1.34375e-07
9.78848e-07
4.21802e-06
3.02504e-06
3.3876e-06
5.33317e-07
1.19806e-07
-9.94059e-09
-2.90931e-10
1.57849e-07
-9.06809e-07
-2.34898e-06
3.19114e-06
3.08798e-06
-6.28116e-07
-4.97646e-07
-3.35352e-08
-7.49349e-09
-1.35339e-07
1.41136e-06
-9.57249e-07
-3.31896e-07
-1.97661e-07
1.96494e-07
-7.07165e-08
-1.67517e-05
-4.51225e-06
1.48497e-06
0
8.37485e-06
1.56967e-06
-4.63348e-07
-0.000331585
7.19273e-08
7.02069e-07
-3.45668e-08
-2.63935e-09
-1.41485e-06
-2.24247e-06
-1.02158e-05
2.37173e-07
9.93571e-06
-9.98089e-06
-1.1941e-06
5.0073e-07
3.3889e-08
8.02366e-06
1.87527e-07
-1.67156e-06
-9.68463e-05
-0.000212055
-0.00011953
6.92749e-06
9.13347e-07
1.81971e-07
2.78548e-07
-8.37976e-07
6.26569e-06
-2.90521e-06
-3.40362e-08
3.2265e-07
6.62437e-08
-7.6206e-08
9.84468e-09
5.24428e-07
1.62259e-06
3.06356e-07
6.55605e-07
8.10764e-08
5.46353e-08
6.28412e-07
-2.42171e-06
-4.57855e-07
2.45669e-07
-2.04056e-06
-9.41085e-07
3.97588e-06
4.88199e-07
-1.62736e-06
3.52625e-07
-1.65659e-05
-4.06152e-06
8.64991e-07
-2.97658e-07
6.39424e-09
-9.38436e-09
-4.34759e-08
5.26296e-08
8.75e-07
6.64028e-07
-1.14518e-06
-4.21087e-07
1.22408e-07
1.55537e-07
1.65993e-08
9.42263e-07
-3.98622e-07
-1.32345e-05
-0.000212055
-7.95413e-07
1.00785e-05
-2.98269e-06
3.44233e-06
6.1973e-05
2.0798e-06
-3.09664e-06
-0.000256346
4.4291e-05
4.62435e-08
1.61391e-06
3.14939e-08
1.13301e-06
-5.33871e-07
-4.60532e-07
-4.92686e-07
5.66725e-07
-4.20827e-07
2.43368e-06
-3.32745e-07
-1.9508e-06
-4.59618e-06
-1.5593e-05
3.46409e-06
3.15525e-06
-1.40341e-05
3.81984e-06
-1.70357e-06
1.3494e-06
5.5691e-07
-1.15418e-06
0
2.36316e-06
4.40296e-07
1.12487e-07
1.04038e-08
-3.31549e-08
-2.42854e-09
1.40147e-08
-3.707e-07
-1.99305e-07
-1.60016e-06
-9.52088e-07
-8.56872e-08
2.45047e-08
-1.05584e-05
-6.50043e-06
-7.96229e-06
7.82398e-06
2.35546e-06
-7.23123e-07
-4.32388e-07
8.8523e-07
-5.35583e-07
-4.57896e-08
4.06808e-07
1.50895e-07
1.27171e-06
5.56548e-07
-2.22682e-07
-5.56926e-06
-1.86615e-06
3.34824e-06
-4.81621e-06
2.48575e-07
-1.127e-08
-3.88801e-09
-1.65438e-07
-1.39243e-06
3.13388e-06
2.69352e-09
-1.63864e-07
7.61992e-07
-1.52498e-06
3.76049e-06
-2.79741e-07
4.49918e-07
5.04815e-07
-5.47278e-06
3.07622e-06
6.76474e-07
1.64735e-06
-2.62419e-06
5.15037e-07
3.68643e-08
8.32101e-07
3.87871e-06
-2.59423e-06
1.3654e-05
-5.74296e-06
2.65939e-06
-2.03123e-06
-4.72622e-07
0
-1.07534e-07
-9.68992e-06
-4.33982e-06
-1.43439e-06
5.25905e-06
1.47788e-06
-5.26074e-07
1.92743e-07
1.23836e-07
-1.19149e-05
8.87706e-07
2.00405e-06
-1.67839e-06
1.5308e-05
5.08254e-06
-3.76472e-07
5.98982e-08
-1.67195e-05
3.34169e-07
-2.03533e-06
-0.00011598
0.000180637
-6.46575e-05
1.95838e-08
1.42018e-07
-1.17898e-07
3.17852e-08
0.00099689
-0.000379145
1.01976e-06
-4.32011e-06
1.84582e-06
-9.28317e-08
-1.01383e-07
1.33835e-07
5.51822e-07
-4.09544e-07
9.3754e-06
-7.38264e-08
-1.0395e-05
5.03542e-06
9.53911e-06
4.21125e-06
4.16068e-06
-3.16168e-06
-1.43301e-07
5.55181e-07
3.67513e-08
2.08368e-07
-4.66379e-07
6.61537e-08
-6.01507e-09
-9.35048e-09
4.71664e-08
6.27763e-07
1.68827e-06
7.56623e-09
-4.77895e-07
-1.22079e-07
2.9115e-07
4.32918e-07
-1.32257e-06
5.52074e-08
8.72521e-07
-8.54119e-08
-2.89782e-06
6.6974e-08
-3.81824e-07
7.19719e-07
3.36244e-08
2.94836e-06
-3.07366e-06
-4.23263e-06
4.6162e-08
1.94861e-07
3.44486e-07
1.39544e-05
-9.59395e-06
1.20763e-06
-4.22654e-07
-1.09451e-07
1.56961e-06
-3.16338e-06
2.395e-06
6.14821e-05
-0.000207649
1.56806e-06
-3.24901e-06
-1.37741e-05
3.87542e-06
-7.4728e-07
0.000132135
1.46376e-07
4.95165e-07
-1.02272e-06
-5.09328e-07
1.64659e-06
3.74896e-07
7.28615e-07
3.37156e-07
9.95865e-08
-5.94731e-06
1.38125e-06
3.47293e-07
-3.14063e-07
1.13683e-05
1.7133e-05
-7.4996e-06
3.859e-06
-1.69726e-06
-2.28713e-07
-9.14936e-07
-1.13245e-07
3.59677e-08
-9.07345e-08
1.2792e-07
-9.94198e-08
8.75362e-07
-7.59361e-08
-6.09498e-06
-1.19562e-07
-1.4596e-06
-1.28934e-05
1.42263e-06
-1.82281e-06
-9.38349e-08
-6.68002e-09
9.98717e-07
-3.15046e-06
-8.77522e-07
5.77498e-07
-5.53654e-08
-6.59451e-08
6.82035e-08
1.49417e-08
7.19516e-07
-1.59861e-06
1.12287e-07
-8.28809e-09
-1.50826e-07
1.3617e-07
8.30932e-06
6.40777e-08
-2.21263e-07
-1.0702e-06
9.67846e-06
-7.59499e-06
1.11766e-06
-2.44544e-07
-7.56586e-08
6.51693e-07
-9.35647e-08
8.31992e-07
-3.53519e-06
-9.42361e-06
2.45391e-07
3.27503e-08
6.62416e-07
-6.97226e-07
-1.07785e-06
7.53778e-08
4.33722e-07
3.5841e-07
-1.2729e-06
-3.46802e-06
3.03071e-06
-2.76703e-06
4.12647e-06
6.38918e-07
9.04882e-08
-1.54713e-06
-1.01507e-06
1.28589e-06
-5.18954e-08
-1.26682e-07
1.00302e-07
3.74445e-07
2.1387e-08
5.90591e-07
-2.57653e-06
5.61462e-09
-1.23861e-07
-9.70774e-08
-1.56932e-07
1.15097e-08
-9.65085e-06
-3.88213e-06
8.52666e-07
4.1854e-07
1.44218e-07
1.0101e-05
6.78602e-06
2.61904e-06
-2.4946e-07
2.33263e-06
-1.59271e-06
-7.43287e-07
-2.76008e-06
4.44325e-07
-6.74985e-07
-2.11069e-06
-9.63782e-06
3.58387e-06
-1.80949e-06
-8.00414e-07
5.22343e-07
1.70666e-07
1.79986e-07
-3.25497e-09
2.35666e-07
2.1357e-06
1.15448e-07
-2.48794e-06
1.09254e-05
3.45762e-07
9.68518e-07
-6.91e-08
5.20054e-07
1.20003e-06
4.25213e-07
8.1887e-08
1.27876e-07
1.15258e-07
3.11191e-07
-2.30208e-06
-1.9252e-07
1.28598e-07
-4.28621e-07
1.04791e-07
-6.87221e-08
-6.34071e-09
-3.43809e-07
-1.12471e-06
3.58212e-07
3.64463e-07
3.37286e-07
1.80815e-06
-4.89415e-06
0
-7.53543e-08
7.93014e-07
-1.94377e-07
2.16386e-09
-5.11647e-07
-1.10774e-05
3.4759e-07
3.81996e-06
8.88649e-08
-4.86807e-08
1.5137e-06
-3.46344e-07
-1.67349e-07
-1.87942e-06
0
-5.08758e-08
2.13422e-06
-2.56021e-06
-1.2906e-06
7.0766e-07
3.06694e-06
5.40521e-07
3.40698e-07
7.92665e-07
-1.87352e-07
8.12176e-08
1.27964e-07
1.07074e-06
5.34068e-07
-9.78108e-07
3.82466e-08
7.62923e-07
-1.61094e-06
-7.09596e-07
7.60607e-06
9.31488e-08
5.70313e-07
-9.11817e-07
-5.61228e-06
-8.67623e-07
7.65361e-07
1.72189e-05
-2.60268e-06
3.57664e-08
-2.60046e-08
1.58186e-06
-2.71749e-06
-1.68686e-06
-3.63383e-06
-8.47731e-07
-5.17679e-06
8.12134e-07
-1.16593e-08
1.03903e-06
3.11033e-06
-1.80386e-06
-7.30172e-06
2.499e-06
-1.9683e-06
2.42608e-08
-1.01827e-07
-3.61272e-06
6.45505e-07
-1.6716e-05
-5.11868e-06
-1.06792e-06
-7.17008e-08
-2.36336e-06
1.859e-06
1.94729e-06
-5.65193e-07
-2.36687e-07
-6.85847e-07
4.37337e-07
-1.07915e-07
3.31795e-07
-3.69799e-06
1.31248e-06
2.34154e-06
5.93106e-07
2.17998e-07
7.48784e-07
7.86103e-08
-1.44904e-07
1.2315e-06
8.55923e-08
-2.6935e-06
-8.0327e-06
9.37992e-06
-2.50179e-06
2.18843e-06
-2.00731e-06
0
-1.27026e-07
4.28716e-07
7.18193e-07
4.15392e-06
-1.52829e-07
2.60007e-08
-1.75837e-06
1.67663e-07
-1.16811e-07
-4.95031e-07
-2.08605e-06
2.49541e-06
1.63774e-06
8.73935e-07
4.73068e-07
7.39215e-07
-2.57214e-06
5.73756e-07
-9.75817e-08
-2.93172e-06
-6.07516e-07
-1.66847e-06
-2.06025e-08
-5.4933e-08
-4.50314e-07
2.57614e-07
2.08529e-07
-3.51386e-07
1.03905e-06
2.94541e-07
2.8406e-07
2.57328e-06
6.65446e-05
0.000457735
-2.86133e-05
4.1999e-08
-4.84963e-08
-9.38585e-05
6.47777e-06
4.17949e-07
-1.7873e-06
-1.6699e-07
2.35813e-06
-1.58208e-06
-1.02973e-07
-2.30756e-05
1.5039e-05
0.000199118
-6.31585e-06
-7.16054e-08
3.71083e-07
-2.58027e-06
-6.87663e-07
9.86483e-07
-8.20885e-07
1.53165e-06
0.000647427
0.000353351
-2.44262e-09
7.14301e-06
7.51148e-06
-1.32153e-06
5.84212e-07
8.46288e-08
-1.56377e-06
6.15177e-07
6.24096e-08
1.6491e-06
-3.18458e-06
8.31304e-07
-8.69309e-07
-1.18609e-05
-5.47138e-05
4.0031e-07
1.45234e-09
-1.09322e-05
3.80721e-07
-2.75113e-06
-1.17869e-07
3.02136e-07
7.35207e-07
6.3891e-06
-1.69332e-06
-4.42249e-06
-0.000384778
0.000853098
-1.65892e-06
2.01358e-06
1.45391e-07
-1.13121e-07
-1.14223e-06
2.80486e-08
5.98806e-08
-2.82e-08
-2.30698e-07
3.24948e-06
-1.12654e-07
-5.72828e-06
-1.23127e-06
2.02338e-06
1.5776e-07
-9.8261e-07
-7.54554e-07
1.59638e-06
2.38625e-07
1.05531e-06
1.3437e-06
4.54587e-07
-3.34468e-06
-1.30581e-07
0.000263886
1.19824e-06
6.47311e-06
-5.30569e-09
1.99537e-06
-5.54975e-07
1.26245e-06
1.99839e-06
1.26334e-06
4.79965e-07
-1.09538e-07
2.09083e-06
-3.8374e-07
1.91974e-06
-2.75085e-06
4.40885e-08
-6.29338e-09
-4.44509e-08
9.16212e-08
-5.29684e-09
2.64342e-06
1.0079e-06
-1.38705e-06
1.97969e-06
1.31751e-05
-1.09614e-05
2.79084e-06
-2.2971e-08
-2.92146e-07
1.10032e-06
-1.01477e-06
5.24931e-07
-1.18149e-06
1.74893e-08
-2.12454e-05
-6.46667e-08
-9.00887e-08
1.79647e-07
-3.38163e-06
2.88247e-06
-7.76262e-07
3.10321e-08
-1.23423e-07
2.28795e-06
1.6697e-06
-1.08043e-07
-7.63688e-07
1.09301e-07
-3.1284e-07
1.76567e-06
-3.35738e-06
-5.25876e-07
8.29377e-07
4.97266e-08
-1.68326e-06
5.50442e-08
1.12582e-06
1.66732e-07
-2.16232e-05
1.64795e-05
-3.15897e-06
-2.18275e-05
-1.05964e-08
-4.42883e-08
-5.87784e-08
-2.9885e-07
1.07175e-06
1.15092e-06
-1.26728e-07
7.87836e-10
6.29627e-07
4.46635e-07
-1.49773e-07
0.000334207
-0.000248603
-4.17348e-05
3.8203e-08
-1.10066e-07
-2.06556e-05
-5.63443e-07
-5.19817e-07
1.7677e-07
3.86654e-07
-8.14988e-09
0
9.90604e-10
-1.12673e-08
-6.69203e-06
2.19587e-06
-3.83366e-06
-9.11796e-10
2.5276e-07
-2.37168e-07
1.25878e-06
-2.2923e-06
-4.85547e-06
1.38587e-06
2.32826e-07
2.26414e-07
-1.71367e-06
0.000163646
0.000106406
2.27133e-06
3.21858e-06
3.43325e-07
1.59175e-09
-7.45536e-08
8.0454e-08
-2.56147e-07
4.68008e-07
-1.58382e-05
1.61965e-06
0.000142498
0.000191711
3.44837e-07
-1.03507e-09
1.9545e-06
-7.99429e-08
5.89427e-06
5.45498e-07
-3.68906e-09
-6.21809e-05
6.6695e-05
-4.74166e-07
8.53687e-07
8.89685e-07
-9.97825e-07
-7.99316e-06
-2.1247e-05
1.93334e-06
-1.38958e-06
1.92552e-07
0.000768659
9.16363e-05
-3.10073e-06
1.5873e-07
3.22553e-06
-1.24646e-06
1.7111e-06
-1.00948e-05
-2.62236e-06
6.81743e-06
-7.51737e-07
-2.92289e-09
8.8976e-07
0
2.52443e-07
1.16303e-06
3.81672e-07
3.68572e-07
9.84558e-07
0.000242131
3.32949e-06
-2.63752e-07
-9.18852e-07
2.92179e-05
-7.53712e-05
4.61523e-05
5.62369e-08
-6.7655e-06
-3.46409e-08
1.05802e-06
-1.4985e-06
-4.27033e-05
-7.36495e-08
-1.82874e-06
4.09193e-09
-5.36693e-09
-2.76133e-07
2.10759e-06
2.26465e-07
0
-9.99934e-07
-2.01834e-07
7.91335e-06
-2.49104e-06
1.82178e-06
0.000882223
0.00017085
-0.000109368
4.57272e-07
2.12088e-06
-2.15915e-06
1.31067e-06
9.97963e-08
0
1.09441e-06
-2.59095e-06
2.59914e-09
3.19706e-06
-1.23035e-05
1.55459e-09
-8.35989e-10
4.68922e-09
-6.44861e-09
-9.34715e-06
-9.73757e-06
1.31887e-08
3.98691e-08
1.22114e-06
1.09305e-06
1.09613e-10
-1.55593e-05
-4.18934e-07
7.82424e-07
-5.89936e-07
-8.53358e-08
7.48596e-08
-1.18866e-07
-5.45502e-07
-3.53042e-10
-2.91813e-05
4.41194e-06
-1.06121e-05
3.73056e-06
-4.85653e-06
-1.73135e-07
7.91407e-07
-9.84385e-07
2.05411e-06
1.9965e-06
-2.08487e-06
2.79002e-07
1.45864e-06
1.58718e-07
6.62316e-08
-7.7132e-08
0
-8.89262e-06
1.12132e-06
-7.1644e-08
-1.7013e-08
8.48476e-07
7.28774e-09
-7.0346e-08
-1.02617e-06
-3.60829e-08
7.50055e-06
0.000714658
-0.000431259
2.7597e-06
9.4016e-08
-1.89861e-07
-2.74732e-06
7.36841e-09
-1.54631e-08
-1.3769e-06
1.53399e-06
3.84595e-06
-3.11776e-06
4.7505e-08
-7.86809e-06
2.1604e-06
1.81344e-06
-2.19886e-07
0
1.6344e-06
-1.59622e-06
2.35744e-07
-3.09915e-07
-2.29212e-05
-4.67968e-05
0.000416438
7.18015e-07
-1.16684e-07
-2.13499e-06
-5.06915e-05
1.16615e-07
2.55118e-07
-1.61852e-05
0
3.17632e-11
-1.93161e-08
2.15287e-07
-1.6058e-05
1.2188e-05
1.09207e-05
-4.64111e-08
4.62567e-08
-1.90484e-05
-1.72693e-07
4.22474e-07
-4.6961e-07
3.44159e-10
4.65682e-07
-1.63553e-07
1.37677e-06
-2.42785e-06
8.9628e-07
1.09867e-06
2.26742e-06
-3.14766e-06
1.39298e-07
0
6.93203e-10
-3.14438e-09
1.64731e-07
-1.08077e-08
-1.85848e-09
-3.78211e-07
-1.54331e-07
3.04271e-07
1.64355e-06
-7.53791e-06
0.000260184
-0.000260184
4.01577e-06
-0.000417786
0.000683046
7.70877e-09
-2.81364e-09
4.2242e-08
-1.25888e-08
7.3392e-05
1.51673e-06
2.50265e-07
1.31326e-07
7.23852e-09
5.7888e-08
4.17823e-07
2.18236e-08
4.23648e-08
4.31548e-07
-4.73916e-07
-2.12069e-05
-3.79196e-05
0
1.99553e-06
4.93598e-06
-3.89845e-07
8.91805e-06
1.32411e-06
-3.66464e-06
0.000279249
-8.9908e-05
3.38438e-06
-3.90855e-06
2.83247e-07
4.38702e-09
4.44341e-06
2.8705e-06
-5.9644e-07
-2.0628e-05
9.88998e-06
1.32117e-06
-5.9044e-07
0.00016772
-7.43207e-08
-0.000194918
-4.31622e-05
-1.76801e-06
7.468e-08
0.00106869
-0.00102687
0.000288703
2.46193e-09
-2.54586e-09
-4.00654e-07
-8.12851e-07
0.000957426
-1.27033e-05
-3.77955e-05
-1.74451e-07
-2.70381e-06
2.4097e-06
-7.65567e-09
3.53532e-07
-1.39354e-07
9.30836e-07
-1.29528e-06
2.43605e-08
-2.6939e-08
9.89531e-07
8.63416e-08
2.22357e-07
2.75034e-07
3.70422e-09
-3.44428e-09
2.52308e-06
-3.42169e-06
5.43785e-05
-0.000158931
7.42408e-08
1.88168e-08
1.17282e-07
-1.58419e-07
-1.28291e-08
2.77867e-07
-1.85125e-07
6.11264e-07
1.55388e-06
-8.56861e-06
3.9772e-07
3.29036e-07
-6.91238e-06
-5.85198e-05
-3.81657e-07
-9.50678e-07
0.000948372
-7.97942e-05
1.30637e-09
-5.73607e-09
1.03179e-09
-1.132e-07
3.64423e-08
-3.45553e-06
-8.86761e-06
7.71989e-10
-3.88104e-08
-6.64448e-08
-1.76696e-07
-4.68209e-06
-7.15939e-11
-0.000476179
0.000476179
0.000874643
5.69609e-06
-3.32236e-07
-4.00106e-05
-2.17933e-11
-3.36478e-08
5.51656e-06
-6.17203e-06
2.14329e-06
1.48865e-06
1.78168e-08
-8.09609e-08
0.000124147
-4.46952e-05
-7.94517e-05
6.05354e-06
-3.72152e-06
-0.000402794
-6.21428e-07
6.77197e-07
-4.49385e-07
1.10068e-09
5.33942e-07
4.61796e-07
-4.94656e-07
-3.25292e-08
1.04467e-06
5.16577e-06
-6.24411e-07
-1.58465e-07
8.7905e-08
2.54427e-07
6.02638e-08
-3.89253e-08
5.99527e-07
3.59608e-06
7.33826e-06
-8.2055e-06
0.000155195
-0.000631374
-1.48772e-06
-3.77751e-05
-0.000422336
0.000331698
1.64369e-06
1.5384e-09
2.44416e-06
-0.000128418
-0.000336326
2.87741e-07
1.68042e-06
-2.43578e-05
5.91645e-05
-4.99047e-08
7.05117e-08
-5.77615e-08
4.48682e-07
-1.63952e-07
-0.000448019
-0.000289588
6.52933e-08
3.34259e-07
7.48248e-05
-0.000123527
2.77682e-06
-8.92226e-06
1.13091e-07
-1.58425e-07
-1.75869e-06
5.97145e-06
0.000232892
-0.000163545
1.16341e-06
-2.65288e-07
8.25392e-08
2.67757e-08
-4.15871e-08
1.99668e-07
-2.81503e-06
8.24137e-05
7.98151e-06
-8.36813e-06
1.21403e-06
-4.39979e-06
-4.46106e-07
-3.67691e-07
3.43177e-07
-8.14148e-07
3.00693e-06
-6.20692e-08
5.03269e-07
-8.25159e-07
3.97963e-07
-1.18983e-07
3.30381e-07
1.84636e-06
-2.8427e-07
-6.2832e-05
5.40293e-05
3.29912e-06
-2.33241e-06
1.11942e-07
-1.01564e-07
2.89762e-07
-7.79585e-08
8.88464e-09
1.37916e-05
-1.38035e-05
-1.07758e-05
5.40546e-06
2.72148e-08
4.50558e-06
1.26579e-06
-6.25369e-07
2.74462e-09
-1.70634e-09
3.10333e-08
-7.18988e-07
1.53598e-06
2.86972e-07
2.00165e-07
2.75872e-07
2.86005e-07
-0.00017103
-2.64047e-07
-0.000173732
-0.000153172
2.50892e-06
3.83635e-07
1.76832e-08
-3.04479e-08
1.38878e-06
3.98541e-06
1.63583e-07
-1.7998e-07
-1.44766e-05
2.01226e-05
3.41155e-09
-1.93903e-09
-0.000811112
1.54394e-08
6.07975e-07
2.69953e-06
-1.09867e-06
-1.83449e-08
1.27335e-06
-1.26036e-06
2.01781e-06
-8.96847e-07
-3.71553e-07
1.54409e-07
-9.82644e-07
1.83085e-07
-1.46306e-07
-9.41939e-08
1.17697e-07
2.41113e-08
0.000387785
-1.8894e-06
7.40491e-06
-8.16852e-06
1.91847e-06
-2.1034e-08
-1.17922e-07
7.65264e-07
-1.89997e-06
-8.64168e-09
-8.36642e-06
9.22536e-05
-1.79354e-06
-1.83315e-07
2.23125e-07
0.00102567
-0.000132335
0.000884376
6.49503e-07
5.03537e-07
-6.2024e-06
3.52922e-09
-0.000604478
0.000456352
1.50326e-06
-3.10984e-06
2.24534e-07
4.66327e-07
1.99582e-07
-4.29165e-06
1.05366e-05
-1.20092e-05
1.87028e-06
-2.64665e-06
-8.96091e-07
1.54301e-06
1.64714e-09
-1.35241e-07
8.88256e-08
-0.000696177
-0.000315764
2.0941e-08
-3.91583e-09
2.40206e-06
2.06443e-06
-5.55359e-08
-5.07715e-08
2.04906e-07
-4.84234e-08
1.73719e-07
1.86572e-07
-2.5326e-07
-0.000332355
6.41486e-08
-3.4177e-08
-1.70444e-06
-0.00136
-3.25776e-06
-1.12361e-07
1.65317e-07
8.29057e-07
-9.85993e-07
-8.36165e-07
0.000389576
-0.000395318
-2.54395e-07
1.92458e-06
4.88204e-05
1.87816e-08
7.41282e-08
-7.89085e-08
-4.8194e-07
6.65098e-06
-1.28477e-06
-0.000331608
0.000251798
-6.85038e-10
5.46304e-07
0
-1.66121e-07
-3.82598e-08
2.99112e-05
-3.1481e-05
1.91514e-06
5.3378e-08
2.54928e-10
-2.76536e-07
8.51527e-05
-7.03917e-06
0.00109525
-0.00135823
0.000262995
-1.70445e-07
1.16309e-05
5.015e-06
-6.04916e-06
1.92517e-06
4.34361e-07
5.61748e-08
-1.65175e-07
3.47086e-06
-1.37857e-06
5.58433e-07
1.31898e-07
3.19621e-05
-3.25731e-05
-2.89477e-05
2.6332e-05
9.22448e-09
-7.90849e-09
4.65546e-06
8.69062e-07
5.0542e-06
-0.000249815
-0.00051934
6.5081e-07
7.95653e-08
-7.79844e-08
-8.61915e-08
3.7164e-07
-3.40096e-05
3.30735e-05
3.17742e-06
-4.02457e-06
0.000528656
-0.000206984
-0.000321289
-2.94034e-06
1.03269e-06
-6.97363e-07
-1.36744e-08
4.82458e-07
-1.60536e-07
-1.00981e-06
-0.000614148
3.98943e-07
-1.24028e-07
2.9214e-05
0.00138433
3.09963e-09
1.82505e-07
-1.48421e-07
3.90711e-08
3.87732e-07
-6.41993e-07
-6.87543e-08
-0.000889981
-1.44946e-07
8.6456e-07
4.33874e-09
4.08582e-07
-3.78954e-07
-6.07975e-06
4.71667e-06
-2.14639e-08
-3.7694e-08
-3.18667e-05
-2.66626e-06
7.65404e-07
3.36063e-07
-6.39328e-08
-8.66278e-07
2.40923e-06
-4.12015e-08
1.08194e-07
-8.22511e-08
-1.66669e-07
1.16859e-05
-1.1713e-05
-0.00107362
0.000678172
9.93145e-07
6.54552e-07
-0.000211187
-0.00032802
0.000373069
7.9788e-08
-2.74927e-07
3.18675e-05
-3.2314e-05
8.48153e-08
-8.7891e-07
1.96759e-06
-2.40535e-05
1.69283e-05
5.29762e-05
-8.12664e-05
2.82903e-05
3.60473e-06
-1.97793e-07
1.08756e-06
-5.84889e-07
7.71415e-07
4.65202e-08
-2.17882e-07
7.19101e-08
2.57629e-05
4.48487e-07
-3.13732e-08
0.000250133
-0.000175656
9.14019e-07
1.02985e-06
-1.39621e-07
3.23136e-05
-3.3033e-05
7.27956e-08
-3.42925e-05
5.69109e-05
-6.42718e-05
0.000456115
-0.000444169
1.14192e-06
6.11576e-06
-7.56302e-06
3.06474e-07
-1.24141e-07
4.85178e-06
4.69893e-06
-3.14618e-06
-0.000145082
5.6245e-07
3.843e-07
2.64202e-06
-1.54389e-05
-9.10424e-08
7.02403e-08
2.0682e-07
2.03673e-07
-0.000176344
-2.4021e-07
7.59693e-07
2.21834e-06
-7.19504e-07
1.42025e-07
-1.54455e-07
1.35007e-06
-0.000251783
0.000119432
2.31349e-07
-1.66601e-08
1.4494e-07
-1.1564e-07
7.26081e-07
-3.75431e-06
3.30339e-05
-3.49238e-05
-3.53673e-08
7.38204e-08
-2.56136e-07
-9.82925e-06
6.2585e-06
-6.73588e-06
-5.50011e-09
7.867e-07
0.000103874
6.69756e-05
-3.57943e-07
-5.89309e-08
2.11542e-08
-0.00121733
0.000350344
3.94565e-07
-1.58255e-06
2.48847e-06
5.53719e-07
8.10865e-07
4.62076e-08
2.38461e-07
-2.65959e-07
-2.24598e-06
1.2892e-06
1.73884e-06
-3.38935e-07
6.51764e-05
5.89705e-05
-4.76877e-07
8.41029e-07
-3.84353e-08
-5.09429e-07
1.30741e-06
1.69928e-07
-5.21103e-08
-0.000444334
-0.000215379
7.45786e-07
-5.8428e-06
0.000180122
-3.03519e-07
9.57308e-07
3.39936e-07
3.15232e-07
-3.08761e-07
-9.40095e-08
-9.23666e-08
-1.24132e-08
-6.77854e-08
-1.00198e-07
2.24383e-06
0.000116816
8.64492e-07
-0.000846085
-0.000663177
3.49495e-05
-3.82336e-05
-3.07861e-08
1.58777e-07
7.67825e-09
-2.69456e-07
-2.27726e-07
7.95555e-08
7.53827e-07
-7.16626e-07
6.1588e-07
4.80351e-07
1.9914e-07
6.92392e-06
2.86911e-07
2.26928e-06
1.19856e-07
1.29564e-06
-6.15714e-07
2.74538e-06
9.74599e-07
-0.000916969
0.000472659
-0.000239035
-4.77777e-07
1.58325e-06
-9.15903e-08
9.82561e-07
-3.61824e-06
4.30426e-06
1.31461e-06
-1.13583e-06
-6.01734e-07
1.48068e-08
6.96472e-07
-4.32707e-07
3.16399e-07
-9.53182e-08
9.89773e-06
1.23658e-05
-1.31085e-05
0.000159462
-0.00019359
6.08725e-05
4.30016e-05
-1.08326e-06
1.16371e-06
-1.64386e-07
9.63008e-06
-8.03969e-05
3.31978e-07
-0.000824998
0.000651806
0.000173214
9.51554e-06
-1.27775e-05
1.05046e-06
1.01914e-06
-1.7056e-07
3.99607e-06
-3.96512e-06
1.70566e-07
8.051e-05
-0.000305863
-0.000243181
0.00038122
8.18464e-06
-8.95537e-06
7.35097e-08
0
3.78693e-07
-4.29632e-07
2.55403e-06
-5.8377e-07
-0.00025992
-0.000319422
0.00103408
1.80532e-07
-1.12962e-07
7.81395e-07
-1.8917e-07
-0.000291085
0.000102578
6.62811e-07
3.68681e-05
-2.57193e-05
-1.89918e-07
-6.38988e-09
-2.42274e-07
1.08123e-06
-1.02697e-06
1.45646e-06
-9.58329e-09
1.07686e-06
-4.95821e-07
2.75141e-06
1.74551e-07
-1.82071e-05
8.33835e-05
2.09655e-07
-0.000474614
-3.69689e-07
2.07361e-06
1.32391e-06
1.43691e-06
-9.97644e-07
-1.93924e-07
5.45877e-07
-8.72024e-07
7.46878e-09
-1.77978e-07
4.87685e-05
-2.37137e-06
4.14226e-07
9.20567e-07
-2.14921e-07
1.81456e-07
1.04034e-07
1.16549e-06
5.51059e-06
-1.16276e-06
2.29487e-06
1.87603e-06
-0.000174159
3.01483e-08
-3.46054e-07
3.94427e-08
-1.28589e-08
-0.000921757
0.000296836
6.14882e-07
4.2672e-07
-1.9021e-07
-0.000156758
-4.61521e-05
3.96365e-07
2.34639e-07
-5.28798e-08
4.27268e-07
2.73254e-06
-8.50006e-07
6.60312e-07
4.01875e-07
-2.69461e-07
-2.6679e-05
2.99093e-07
7.7478e-09
1.58946e-07
-1.28262e-05
-1.50939e-07
3.00872e-07
0.000914821
9.084e-06
-1.10656e-06
6.87565e-05
-2.11184e-06
3.01622e-06
-3.18671e-05
-0.000154063
3.35836e-07
-3.67335e-07
7.85358e-07
-5.86603e-06
5.15362e-06
2.88644e-07
6.59912e-05
2.48934e-07
-1.16888e-07
4.68421e-07
1.2913e-06
-2.4158e-07
1.18894e-07
7.43994e-07
-3.06241e-07
-2.10871e-06
3.69629e-06
-2.85818e-05
2.64373e-05
5.29763e-05
-0.000562815
0.000256836
0.000107715
-4.87445e-05
3.70013e-07
-9.01514e-05
0
-1.29497e-06
-4.31614e-07
9.25076e-07
-2.10223e-07
-7.60122e-08
2.09626e-07
-6.61063e-10
6.31951e-07
-2.77736e-06
-1.98507e-06
1.27481e-06
-6.3987e-06
3.7523e-07
9.20123e-07
-2.10047e-05
0.00012872
-2.61422e-07
-0.000528276
-3.52514e-07
0.00028834
-0.000284223
-0.000586038
0.000175192
0.000230776
-0.000241492
1.27229e-08
2.79473e-07
-0.000101393
-0.000137866
9.3754e-05
2.0134e-06
-0.00032943
0.000245597
-0.000248435
-3.82364e-07
3.29657e-07
-4.30016e-05
9.17702e-05
1.87621e-07
-2.16548e-10
-9.38255e-09
-1.0105e-05
4.83085e-07
0.000233813
-0.000188817
7.687e-07
-1.13892e-08
1.73372e-05
-1.60455e-05
2.94947e-08
0.000158134
-1.93163e-05
-0.00012673
6.73723e-05
-0.000163242
4.51241e-07
0.000145989
-3.23456e-05
9.94551e-07
5.69568e-07
2.10595e-07
0.000152138
-0.000140808
1.35247e-06
-9.75714e-07
-0.00027421
-2.44976e-05
6.03981e-08
2.76806e-07
-5.04532e-08
8.7186e-07
-3.66224e-09
-2.17534e-06
3.51238e-06
-6.44159e-07
4.31659e-07
-6.52264e-06
2.69871e-06
3.95877e-06
-6.55956e-07
3.80108e-07
-0.000291449
0.000320253
1.00913e-06
-5.88045e-07
-1.69708e-07
3.04682e-08
1.31108e-07
1.12889e-06
-1.09587e-06
-2.0488e-07
-0.000272474
-5.29258e-06
6.23788e-05
0.000151311
-0.000159171
-1.21607e-07
1.83204e-07
-3.66618e-07
-6.99752e-07
-4.14706e-08
1.76683e-07
1.72359e-07
-0.000264113
2.89036e-07
1.14286e-07
-3.92011e-07
1.0476e-08
-2.60993e-06
3.33187e-06
-0.000198386
0.000107633
9.07738e-05
1.18328e-06
-3.95074e-07
8.95808e-06
-8.88712e-06
4.14447e-07
-3.21415e-06
4.23036e-06
8.35602e-07
-1.10527e-05
5.59871e-06
-0.000321603
0.000322998
1.78439e-06
-1.08897e-07
2.77907e-06
-1.48011e-06
-0.000323968
0.000328306
-1.84169e-07
2.04244e-07
-1.56223e-07
-2.76598e-05
9.69787e-07
-2.16655e-06
7.12992e-07
8.44192e-07
1.64502e-07
0.000158533
-0.000155163
2.14596e-07
3.41216e-07
-1.00709e-06
-8.74261e-08
-0.00034366
0.000695799
-4.51059e-07
2.36586e-07
5.34498e-07
4.16277e-07
-1.30463e-05
8.88521e-07
3.45742e-08
3.51843e-08
-2.98567e-06
3.14649e-06
-9.13203e-08
4.12467e-07
-2.35534e-05
0.000117307
1.40098e-06
-0.000133103
0.00010955
7.25452e-08
-2.23241e-05
-9.33633e-08
2.91546e-06
3.909e-07
3.69728e-07
-2.04933e-10
-5.18924e-07
-9.17702e-05
0.000154149
-2.84911e-07
1.66969e-07
-5.4192e-08
4.77949e-07
-4.38346e-06
0.000138082
-0.000228374
0
-0.000139891
-4.04887e-06
3.60247e-07
-2.66322e-06
-2.50569e-07
3.69105e-05
-1.85597e-06
1.76686e-07
-8.16886e-06
-0.000731113
0.000217241
-9.9065e-07
5.68024e-07
0.000114965
0.000139384
-3.87262e-07
2.52655e-07
1.52049e-06
-5.43192e-07
2.46806e-07
-5.66884e-08
-9.60831e-09
8.79102e-05
-1.00976e-05
1.0573e-05
0.00015431
-9.87481e-05
-6.40602e-07
5.62562e-07
-4.18113e-06
4.52196e-06
1.62627e-07
-1.71161e-07
0.000214447
-0.000177537
-4.06302e-06
3.68528e-06
-5.82442e-07
1.07053e-07
-4.07998e-05
6.92171e-06
-3.3327e-08
-1.95923e-06
1.80616e-06
-8.26728e-07
-6.30697e-07
1.15408e-06
-2.20092e-07
1.5378e-07
3.80877e-06
-4.17572e-06
-0.000173834
-5.90195e-05
1.04066e-07
-3.36718e-06
-2.07298e-08
3.27757e-07
-2.79436e-08
2.42948e-08
2.5611e-07
-9.77874e-08
2.42357e-07
-8.91012e-05
-1.42555e-05
0.000158543
6.17804e-07
-8.29274e-08
-8.16145e-07
5.91672e-07
-1.61924e-06
4.57913e-08
2.28064e-06
-8.51894e-07
3.54265e-07
-0.000154149
0.000149765
-3.13226e-06
4.24751e-06
2.15448e-07
-2.63217e-07
1.81428e-08
-5.17066e-08
-4.39298e-06
1.71021e-06
7.10523e-05
-8.97853e-05
-0.000280869
7.65673e-06
-0.000114983
-2.87778e-06
2.54334e-06