/*--------------------------------*- C++ -*----------------------------------*\
  =========                 |
  \\      /  F ield         | OpenFOAM: The Open Source CFD Toolbox
   \\    /   O peration     | Website:  https://openfoam.org
    \\  /    A nd           | Version:  8
     \\/     M anipulation  |
\*---------------------------------------------------------------------------*/
FoamFile
{
    version     2.0;
    format      ascii;
    class       volScalarField;
    location    "0.95";
    object      epsilon;
}
// * * * * * * * * * * * * * * * * * * * * * * * * * * * * * * * * * * * * * //

dimensions      [0 2 -3 0 0 0 0];

internalField   nonuniform List<scalar> 
1924
(
0.0247713
0.0314386
0.0612712
0.0718605
0.0342789
0.0715676
0.0767323
0.0769843
0.0811443
0.0598837
0.0814815
0.087334
0.0367109
0.0871758
0.107263
0.106611
0.0381639
0.0963533
0.0207103
0.0962545
0.0304933
0.0497271
0.035269
0.108486
0.0495883
0.0766844
0.0756936
0.0474617
0.0328892
0.0895454
0.0383019
0.0575549
0.0236977
0.0373252
0.0482827
0.0349282
0.0624875
0.0372697
0.0921473
0.0398532
0.0724892
0.0329456
0.0749301
0.0321365
0.0676095
0.0301108
0.0218277
0.0740723
0.00745758
0.0142702
0.0219519
0.0367226
0.0472723
0.018426
0.0309282
0.0613713
0.019937
0.0668322
0.0544214
0.0804294
0.0286806
0.10021
0.0270141
0.0880455
0.0159529
0.0739676
0.0868073
0.0380012
0.0311417
0.0241714
0.0341601
0.0998755
0.0894338
0.0901678
0.0947469
0.0383389
0.078632
0.0958617
0.0794439
0.0244911
0.117997
0.0744812
0.0755964
0.0306601
0.0204249
0.0367875
0.0541683
0.106394
0.00911264
0.0342146
0.0842197
0.0775124
0.0314631
0.0387698
0.0369159
0.00970944
0.078541
0.116961
0.0783704
0.0383051
0.0524988
0.0367127
0.0770311
0.0764396
0.0412442
0.104856
0.0376837
0.0441212
0.0816
0.0342106
0.0789539
0.0332766
0.0384059
0.0812878
0.0834908
0.0270949
0.0597907
0.106932
0.0321273
0.083482
0.01186
0.00862216
0.0198684
0.0269814
0.0919764
0.046335
0.0412855
0.101245
0.0346682
0.0218488
0.0851317
0.0455892
0.253589
0.0805685
0.0382874
0.0416026
0.0418399
0.0359204
0.10967
0.0444926
0.0678638
0.0918744
0.088885
0.121908
0.0623344
0.0105848
0.0457219
0.0385582
0.0828764
0.0290436
0.0752299
0.0167197
0.0419867
0.0457767
0.0702621
0.0480324
0.0089154
0.0491473
0.084914
0.51369
0.0856334
0.0343735
0.0568616
0.00879308
0.0687448
0.0431992
0.0480237
0.0114734
0.08588
0.0362441
0.029923
0.071179
0.108115
0.0789668
0.0671476
0.0523688
0.0867184
0.127788
0.0313764
0.0567384
0.0612035
0.112044
0.0883149
0.0493998
0.00432719
0.0299178
0.0452278
0.0648758
0.087206
0.0857131
0.0471718
0.0765905
0.093205
0.0690151
0.0485232
0.0174629
0.0660767
0.0551962
0.0565309
0.0559683
0.0686325
0.0345841
0.0426726
0.0770828
0.0327435
0.0643128
0.0684797
0.0462705
0.0412657
0.34374
0.00929478
0.0369915
0.1126
0.0500953
0.0665723
0.0989817
0.0830215
0.0493403
0.0764457
0.104268
0.0499079
0.0728539
0.0435732
0.111685
0.0814454
0.0671582
0.0931436
0.111936
0.0504871
0.0562214
0.163462
0.0800637
0.0603696
0.158419
0.0660271
0.695757
0.116778
0.0765928
0.0434418
0.0184971
0.111653
0.0640006
0.11757
0.0480662
0.332151
0.0413722
0.0818366
0.0740269
0.0921893
0.11121
0.0363455
0.011867
0.0520207
0.0379906
0.0924071
0.114005
0.0780384
0.059718
0.053005
0.0815397
0.0537757
0.0445161
0.0800552
0.0947783
0.0586852
0.0996829
0.0301047
0.109049
0.0347163
0.0507431
0.0542315
0.075536
0.0283147
0.0659198
0.0808616
0.1198
0.0859724
0.0667842
0.0410231
0.0602766
0.029284
0.0271887
0.0802634
0.0542934
0.0121446
0.0879513
0.102293
0.015635
0.0819741
0.0627887
0.047335
0.0938017
0.0666116
0.118065
0.0156727
0.0688777
0.113093
0.0489398
0.106949
0.117292
0.0300132
0.0419584
0.120067
0.0826161
0.0861545
0.0710274
0.030733
0.12065
0.0577326
0.0731634
0.0440124
0.0261824
0.0557571
0.0418323
0.0954371
0.031674
0.0565485
0.0856764
0.0484368
0.0560877
0.097059
0.0535851
0.0491895
0.0730054
0.0732821
0.116684
0.0667337
0.0651421
0.0738513
0.104708
0.0597343
0.0871189
0.0404072
0.0943781
0.105023
0.0677644
0.0820507
0.0545825
0.061552
0.0498453
0.115418
0.0795177
0.0452859
0.0497596
0.113896
0.10093
0.139294
0.0921126
0.024978
0.0731163
0.0720503
0.237745
0.269855
0.119821
0.0443439
0.113505
0.00328961
0.0861967
0.0546981
0.0079731
0.0699408
0.117041
0.120465
0.0825314
0.0670879
0.0611971
0.0422848
0.0499765
0.0628933
0.0556686
0.121915
0.0581798
0.0625763
0.112487
0.0789199
0.0935396
0.116332
0.11301
0.0521545
0.0946557
0.100605
0.111253
0.0680012
0.0577037
0.057048
0.122343
0.102629
0.0865031
0.0790742
0.0612418
0.323838
0.0399973
0.0693347
0.0875465
0.0662819
0.375477
0.0762434
0.0461448
0.112353
0.106467
0.0131404
0.109031
0.0484161
0.0381931
0.0232693
0.0832341
0.121735
0.0897271
0.0537798
0.0739892
0.0713235
0.0392569
0.0947479
0.0716291
0.0699184
0.0778661
0.119753
0.117781
0.0365916
0.0774823
0.118488
0.0489865
0.121514
0.0453698
0.0605877
0.121163
0.101578
0.0915865
0.0419594
0.0809744
0.0837056
0.118455
0.0818647
0.0380611
0.0670895
0.0809099
0.121881
0.0246129
0.0721653
0.0537359
0.0554308
0.0781522
0.0594197
0.0506605
0.0943628
0.758354
0.0751418
0.106619
0.0707661
0.0866903
0.11271
0.0402873
0.0593344
0.113869
0.0765707
0.0701447
0.122733
0.114944
0.0361087
0.100741
0.116591
0.0455845
0.0308502
0.032557
0.0484163
0.0872852
0.0896365
0.0710554
0.0802705
0.0793577
0.0682777
0.0389767
0.0988969
0.122858
0.0454725
0.114717
0.0886627
0.0946436
0.0946704
0.106474
0.0766351
0.0748201
0.0839944
0.0902116
0.0426555
0.0639148
0.079805
0.111876
0.0822173
0.104689
0.0273611
0.0817571
0.0384718
0.0776194
0.118466
0.121813
0.100439
0.0845034
0.077529
0.0727385
0.1195
0.114283
0.0518865
0.0501316
0.0447804
0.0740465
0.114982
0.0712173
0.0402257
0.122107
0.112145
0.120606
0.0858527
0.0607278
0.0874321
0.0880076
0.0465549
0.0708558
0.0808484
0.10604
0.0373476
0.1142
0.118663
0.122903
0.0625984
0.0703068
0.102895
0.0278689
0.0674477
0.0774821
0.0322104
0.100305
0.0391263
0.0333347
0.0461005
0.0900705
0.0755388
0.0447747
0.0326162
0.0548735
0.0424991
0.0765165
0.0236742
0.110023
0.123056
0.0805062
0.0917207
0.0861476
0.0941667
0.11695
0.0778337
0.0844421
0.110967
0.0383233
0.0722196
0.0318896
0.0279657
0.0205588
0.0616479
0.08779
0.0515715
0.0361062
0.0414532
0.0848924
0.0507737
0.0386053
0.1168
0.082405
0.0958448
0.0408719
0.122272
0.0819705
0.0669083
0.0861093
0.10531
0.0881395
0.0295156
0.0454393
0.11941
0.032097
0.0445183
0.100701
0.0851899
0.0866685
0.015248
0.0241335
0.115005
0.0241648
0.120562
0.0795083
0.0572497
0.0380182
0.0340598
0.0173195
0.0211956
0.121386
0.0885385
0.104383
0.0904033
0.0295564
0.0079751
0.113734
0.0783208
0.0865043
0.0391665
0.100598
0.0715657
0.114068
0.0410194
0.024936
0.0542813
0.113251
0.0290417
0.10955
0.0432172
0.0945656
0.0640455
0.0458597
0.0121489
0.0790236
0.122942
0.118506
0.0824275
0.0461974
0.0817307
0.10021
0.0253649
0.0997285
0.0726781
0.0286227
0.106215
0.0722515
0.109244
0.0270808
0.0384561
0.00886889
0.0657428
0.0527269
0.077698
0.123219
0.083479
0.0850181
0.0409239
0.0564232
0.057226
0.111015
0.0450965
0.109671
0.0796832
0.0477798
0.0371118
0.0854707
0.0518327
0.0685652
0.0244606
0.0868033
0.0333017
0.112414
0.053295
0.0280825
0.0356648
0.0225768
0.103689
0.122272
0.0871897
0.0866821
0.0476207
0.10507
0.037862
0.0397314
0.0429484
0.115305
0.0274145
0.114214
0.109993
0.120522
0.0858106
0.110834
0.0202265
0.0251468
0.117917
0.114084
0.0939867
0.0904354
0.0465683
0.0822881
0.0886722
0.0343509
0.120933
0.0215071
0.0846757
0.0833379
0.089747
0.0559631
0.0368903
0.110083
0.0248825
0.107633
0.0417977
0.0445746
0.116988
0.0278582
0.0652486
0.0436328
0.0166488
0.0694626
0.0822817
0.0515538
0.122614
0.0384326
0.0377703
0.0206192
0.0822825
0.0278048
0.0479331
0.0740273
0.084823
0.0329122
0.10689
0.00802104
0.105561
0.100322
0.113616
0.0212906
0.109416
0.0526282
0.126025
0.0117416
0.0433489
0.123248
0.0849928
0.0249354
0.0682614
0.0437234
0.0909952
0.0469901
0.0892244
0.0762918
0.0945883
0.0302116
0.0176664
0.0868205
0.114709
0.0192707
0.0891357
0.144226
0.0397494
0.0213311
0.0379184
0.122413
0.0460011
0.0551214
0.0924459
0.0725208
0.0729219
0.0699594
0.0842713
0.0130393
0.0137374
0.0988507
0.0911803
0.0873168
0.108363
0.119527
0.0452747
0.0218131
0.0484235
0.0417398
0.0193383
0.0540997
0.105549
0.049126
0.0616739
0.0792704
0.0435648
0.117528
0.038933
0.0475621
0.0183247
0.0731222
0.0264777
0.1089
0.0877052
0.0437881
0.108323
0.0936009
0.111203
0.0626057
0.109427
0.0761554
0.0229751
0.0352549
0.112264
0.0790135
0.0437216
0.116746
0.119943
0.0130806
0.0630873
0.0374279
0.0278942
0.0428535
0.0474343
0.0815092
0.109303
0.108403
0.0787877
0.103936
0.0832591
0.0405996
0.0966392
0.122796
0.0661461
0.0300109
0.0376372
0.0189712
0.0955097
0.0189514
0.0466971
0.0356077
0.0306007
0.0752833
0.10548
0.0180476
0.0892359
0.123186
0.0427454
0.0912362
0.0835695
0.0201848
0.109612
0.110283
0.0379981
0.0495534
0.0454237
0.0493717
0.10751
0.0948054
0.121941
0.0251671
0.101727
0.0272497
0.0504307
0.0493521
0.00342406
0.034772
0.05149
0.0445926
0.0998937
0.0372405
0.0926168
0.0864852
0.017066
0.108096
0.107936
0.0679804
0.0327173
0.0389579
0.0168345
0.0980979
0.0920112
0.106204
0.0674298
0.0883966
0.0267372
0.0756446
0.01738
0.0484112
0.0177122
0.0221572
0.119802
0.0375908
0.0229621
0.0881176
0.0404079
0.0842782
0.108341
0.0229575
0.0152942
0.0576171
0.0817717
0.037706
0.0985708
0.0912746
0.0537749
0.0470417
0.0757945
0.100625
0.0872065
0.0899803
0.0422622
0.112837
0.0140066
0.106955
0.114239
0.116268
0.121268
0.104758
0.0276356
0.110836
0.0198838
0.0934094
0.0384528
0.0119859
0.052008
0.0462215
0.108011
0.0168591
0.0516861
0.106816
0.0522243
0.079913
0.122272
0.0523654
0.012908
0.0814319
0.0160878
0.0507564
0.0395642
0.0991647
0.0966361
0.110052
0.0439151
0.0182138
0.12322
0.0215031
0.109719
0.0763808
0.0988407
0.0518668
0.0413436
0.102807
0.0488806
0.0355797
0.0640053
0.0413649
0.0963191
0.0372731
0.0521381
0.0820777
0.0989914
0.0461844
0.122288
0.0189081
0.026546
0.0552949
0.0431004
0.0641289
0.0176912
0.108468
0.0307438
0.0478288
0.276682
0.0376206
0.0923977
0.022886
0.0235521
0.124163
0.0193038
0.100031
0.0428398
0.116971
0.0379651
0.103692
0.01614
0.0729448
0.105772
0.0452799
0.0552281
0.0164289
0.0984651
0.038464
0.0976162
0.0539413
0.10987
0.0791841
0.0550379
0.0553886
0.0899202
0.0450989
0.106551
0.0548415
0.0258551
0.0393674
0.0516753
0.086332
0.0444932
0.0624831
0.0773449
0.0368737
0.0424999
0.0734829
0.11294
0.0407448
0.037386
0.0981765
0.0347865
0.0933845
0.096005
0.0219698
0.0497998
0.0155867
0.0323483
0.098988
0.0377932
0.0410679
0.109941
0.111554
0.119309
0.0560049
0.0420648
0.01618
0.104115
0.0547521
0.120536
0.123099
0.0551674
0.0536392
0.0379158
0.0465962
0.111667
0.107817
0.113082
0.0210165
0.0974868
0.099242
0.0621465
0.038565
0.080516
0.0808585
0.0849603
0.0376122
0.0265351
0.123191
0.0908964
0.01171
0.0127171
0.0399547
0.110553
0.0655534
0.0457317
0.0218088
0.109096
0.107298
0.0873393
0.102306
0.0556009
0.119466
0.0586034
0.0574587
0.0627193
0.0413357
0.107112
0.0194971
0.0428982
0.115073
0.0971709
0.0529918
0.106784
0.0815795
0.0364615
0.0578546
0.0220682
0.0369266
0.0773121
0.0205836
0.0971588
0.109264
0.0483963
0.117492
0.0147857
0.107407
0.0148964
0.0421938
0.0369214
0.0571625
0.0718265
0.0256727
0.100916
0.0364072
0.0470509
0.252869
0.0549163
0.0372869
0.00803117
0.019178
0.0348534
0.102735
0.0549311
0.105718
0.05852
0.0389637
0.0979293
0.255588
0.250628
0.0434015
0.0554828
0.10975
0.111715
0.0729816
0.0159923
0.0363426
0.0402972
0.0286875
0.259178
0.0595092
0.00594546
0.0231882
0.0604862
0.0938735
0.0572644
0.0181617
0.0909109
0.0273094
0.0344811
0.0967611
0.0203893
0.0427016
0.117223
0.0367843
0.0516286
0.061139
0.0187745
0.104025
0.118431
0.122228
0.0472813
0.062289
0.0359057
0.259204
0.0985921
0.100374
0.0867817
0.109325
0.0349268
0.0357912
0.0489764
0.122688
0.120327
0.0123209
0.037656
0.103021
0.0468096
0.0117358
0.0193859
0.0409153
0.253419
0.04388
0.0393082
0.248929
0.0158961
0.063387
0.119678
0.108411
0.0976832
0.108704
0.111532
0.0203941
0.0807792
0.0482798
0.0554429
0.0593378
0.0467012
0.256394
0.0431789
0.0278393
0.0130304
0.0554406
0.108854
0.0399673
0.110607
0.0338286
0.0233719
0.0139786
0.103239
0.0950343
0.0558086
0.0618518
0.0848592
0.0920952
0.0880499
0.0193606
0.106952
0.0306531
0.0593685
0.0342459
0.0261787
0.0411565
0.0620977
0.0558517
0.258684
0.0351772
0.0609176
0.0658418
0.245957
0.102528
0.0121914
0.0525139
0.0341849
0.0165243
0.0821702
0.109841
0.058164
0.0342638
0.0726875
0.0315562
0.0449543
0.0158722
0.102748
0.0998033
0.0347035
0.10865
0.0181526
0.105768
0.0493026
0.0347523
0.105073
0.0399742
0.120907
0.0311869
0.0539066
0.0621372
0.0438015
0.0368001
0.0405916
0.109781
0.0193769
0.0159094
0.00588162
0.261242
0.121599
0.0412488
0.0618635
0.116703
0.101953
0.0990284
0.104463
0.0329397
0.0742813
0.0319166
0.108669
0.0954788
0.0637626
0.0113622
0.0108361
0.109193
0.0373043
0.0570594
0.0329421
0.130479
0.0584389
0.0337906
0.0966748
0.0285215
0.0878457
0.247257
0.119841
0.0319359
0.0266513
0.0572546
0.0921773
0.0317338
0.0475158
0.0266472
0.040075
0.017176
0.0224577
0.0337266
0.0306297
0.115678
0.0593843
0.119987
0.013954
0.0168905
0.110594
0.0475006
0.10826
0.0568775
0.0284728
0.0162453
0.00955518
0.0820859
0.100701
0.0263004
0.0934341
0.266016
0.0626841
0.107535
0.0609693
0.0448888
0.0967404
0.0351075
0.0891985
0.0131327
0.0656062
0.01604
0.103527
0.106732
0.0609794
0.0372274
0.499871
0.0628977
0.0405587
0.0117484
0.109918
0.0934093
0.109291
0.0835774
0.504549
0.03088
0.106026
0.101307
0.51028
0.0126372
0.0397843
0.120158
0.0846248
0.013202
0.0977273
0.061765
0.0169722
0.102277
0.0892129
0.0944705
0.0358064
0.0591472
0.49571
0.0994137
0.119336
0.0172211
0.0748692
0.110031
0.0235457
0.0585556
0.0617195
0.0185733
0.119055
0.0189482
0.110613
0.495386
0.501014
0.0163584
0.028741
0.0964021
0.0468897
0.0594649
0.090421
0.104416
0.0764233
0.0375455
0.104948
0.11204
0.02331
0.504878
0.0935846
0.108255
0.275631
0.016501
0.0202573
0.0122558
0.0160953
0.0932001
0.0110915
0.0514406
0.10978
0.0600522
0.0839775
0.108954
0.0588515
0.0405893
0.0607205
0.487769
0.493976
0.110121
0.107316
0.0126331
0.509957
0.061227
0.0127456
0.047719
0.0714283
0.0139409
0.0717115
0.0655875
0.0263493
0.0193973
0.0230244
0.0766745
0.111227
0.0269187
0.0851726
0.0403634
0.226914
0.0771711
0.0902774
0.074544
0.119265
0.0115825
0.0837752
0.0361922
0.0102361
0.0900082
0.0965971
0.0288595
0.514719
0.0853805
0.0623046
0.0167775
0.0694621
0.0626755
0.0993072
0.039298
0.104016
0.0594906
0.0410754
0.0593751
0.0752843
0.101746
0.0347327
0.0762447
0.118415
0.06008
0.017685
0.0514792
0.0461371
0.0113041
0.0728069
0.111503
0.116204
0.0586038
0.0375452
0.07757
0.0120996
0.0846793
0.059514
0.52242
0.118547
0.11036
0.0150856
0.293524
0.111466
0.0833894
0.106045
0.109423
0.0539436
0.0721543
0.0612838
0.0545806
0.0669373
0.0682278
0.111034
0.280221
0.0971174
0.118959
0.110971
0.0733725
0.102147
0.0618834
0.051993
0.0546519
0.0599494
0.0365796
0.099685
0.052976
0.465644
0.0617987
0.110557
0.0613398
0.111854
0.059231
0.104404
0.0147231
0.111709
0.0100942
0.111379
0.0140661
0.0715389
0.0277064
0.321978
0.311748
0.536905
0.0413259
0.0259892
0.0607276
0.0773939
0.00971848
0.0312756
0.0439425
0.015056
0.0538946
0.118286
0.115492
0.0163289
0.117875
0.117824
0.0350886
0.0560438
0.0129486
0.0558226
0.0616095
0.0800966
0.0601142
0.0390238
0.0145574
0.110723
0.0785429
0.0524829
0.0614959
0.109863
0.0567377
0.0103946
0.136455
0.107836
0.107855
0.133685
0.0453767
0.139319
0.0543981
0.11236
0.137218
0.0570255
0.268399
0.130738
0.0579601
0.109816
0.0311289
0.152047
0.159768
0.0549447
0.0403497
0.0567336
0.111426
0.0376082
0.0606357
0.106425
0.0465237
0.0183477
0.016333
0.132783
0.043943
0.0689084
0.0472496
0.331704
0.0607898
0.0193476
0.321996
0.0582387
0.0510542
0.326829
0.0338348
0.0166526
0.0114863
0.124984
0.335311
0.0441512
0.0459592
0.109147
0.0585775
0.0538222
0.117107
0.0565554
0.141585
0.135947
0.0724461
0.0454678
0.119422
0.112784
0.0791189
0.0580077
0.0367307
0.0281643
0.384488
0.455072
0.245833
0.0168432
0.109694
0.113618
0.0518032
0.0487193
0.11342
0.109193
0.0472797
0.113684
0.0583013
0.0813032
0.115795
0.110305
0.0406108
0.0375307
0.118356
0.133091
0.113159
0.0267322
0.284606
0.0229582
0.11707
0.0568028
0.0500056
0.046466
0.486986
0.043752
0.0284121
0.0373088
0.294052
0.0507969
0.115404
0.114024
0.0491894
0.117851
0.0470642
0.337334
0.0442903
0.566779
0.577786
0.110533
0.0487609
0.0516977
0.312736
0.0556455
0.116815
0.037428
0.113125
0.0354744
0.109262
0.00694314
0.115228
0.134783
0.0516787
0.0538393
0.655875
0.0526094
0.116618
0.0457734
0.0442153
0.607157
0.0504481
0.482029
0.214315
0.114666
0.116245
0.624348
0.315303
0.0462331
0.641803
0.113871
0.0451117
0.0773737
0.0442649
0.108172
0.0440413
0.312756
0.0360717
0.116823
0.0503551
0.0437475
0.115951
0.00682927
0.0548272
0.116727
0.115678
0.11761
0.0443088
0.034833
0.665945
0.115443
0.114877
0.0462934
0.117026
0.0469115
0.108598
0.0146862
0.0226451
0.0402212
0.117435
0.109702
0.0130852
0.0527067
0.10781
0.448972
0.114774
0.109492
0.111873
0.116074
0.0819419
0.135817
0.0397311
0.0403564
0.0431365
0.0385831
0.620786
0.617946
0.036731
0.323765
0.104989
0.110832
0.0376734
0.0142462
0.0410214
0.113254
0.0398174
0.0123155
0.0160095
0.114061
0.0369897
0.11222
0.337693
0.672052
0.114034
0.115272
0.0330807
0.111596
0.0355623
0.106512
0.114592
0.105513
0.62149
0.0394396
0.305548
0.033852
0.206196
0.105766
0.203612
0.175149
0.384345
0.110133
0.617575
0.112567
0.328551
0.0384758
0.108633
0.200396
0.104939
0.0374823
0.0721472
0.082877
0.132434
0.109014
0.0465884
0.107975
0.187822
0.0348146
0.10947
0.0989662
0.616423
0.678185
0.338611
0.341195
0.104049
0.327887
0.193238
0.179559
0.0989365
0.105422
0.105292
0.0373657
0.582552
0.166934
0.109971
0.0350254
0.100927
0.0934411
0.0377173
0.108022
0.104368
0.0377251
0.46688
0.292971
0.0371311
0.598267
0.273535
0.397622
0.176777
0.0844683
0.0924465
0.0101416
0.00578743
0.173603
0.00535285
0.191144
0.0160529
0.116418
0.0756334
0.236928
0.0924053
0.144846
0.121227
0.0849066
0.122827
0.135708
0.0820609
0.339754
0.653555
0.674338
0.575871
0.320031
0.681004
0.343055
0.279849
0.110933
0.102815
0.0777361
0.118217
0.126785
0.0894717
0.682427
0.0823855
0.08676
0.100404
0.107025
0.10465
0.0302521
0.0391804
0.0252732
0.0149669
0.0228895
0.0283796
0.0125406
0.0394996
0.0088441
0.0130839
0.0283259
0.0113961
0.0871921
0.0203795
0.107601
0.0307373
0.0540994
0.039192
0.00334457
0.0297832
0.0426222
0.0439618
0.021695
0.0534036
0.0233541
0.0223785
0.0213631
0.0236162
0.0131263
0.0358481
0.0129107
0.0164842
0.014269
0.0549923
0.0477236
0.0149041
0.0168472
0.00653496
0.00850606
0.0303436
0.0515808
0.0382265
0.0196851
0.0388871
0.0356731
0.0147466
0.0180228
0.0335991
0.0144191
0.0920698
0.00909198
0.00301185
0.00996474
0.0144914
0.0142291
0.00794124
0.015039
0.00916061
0.00913941
0.00838059
0.00804205
0.00943865
0.0535889
0.051345
0.00651913
0.0947727
0.0165906
0.0138777
0.0302683
0.00539369
0.0174049
0.0153018
0.0484474
0.00571358
0.0241673
0.0219321
0.00979135
0.016426
0.00690771
0.00918954
0.0110169
0.121222
0.0141211
0.0479238
0.0249603
0.0055104
0.118237
0.00518298
0.0209776
0.0116851
0.0252571
0.044577
0.114918
0.00336068
0.00819383
0.0105986
0.0438449
0.117942
0.00943443
0.120798
0.0413163
0.0103787
0.0405708
0.119025
0.0131586
0.0379229
0.0135121
0.0105015
0.00893774
0.0158953
0.0387805
0.0096872
0.0164327
0.115986
)
;

boundaryField
{
    patch0
    {
        type            epsilonWallFunction;
        value           nonuniform List<scalar> 
4010
(
0.0247713
0.0247713
0.0314386
0.0314386
0.0612712
0.0612712
0.0718605
0.0718605
0.0342789
0.0342789
0.0715676
0.0715676
0.0767323
0.0767323
0.0769843
0.0769843
0.0811443
0.0811443
0.0598837
0.0598837
0.0814815
0.0814815
0.087334
0.087334
0.0367109
0.0367109
0.0871758
0.0871758
0.107263
0.107263
0.106611
0.106611
0.0381639
0.0381639
0.0963533
0.0963533
0.0207103
0.0207103
0.0962545
0.0962545
0.0304933
0.0304933
0.0497271
0.0497271
0.035269
0.035269
0.108486
0.108486
0.0495883
0.0495883
0.0766844
0.0766844
0.0756936
0.0756936
0.0474617
0.0474617
0.0328892
0.0328892
0.0895454
0.0895454
0.0383019
0.0383019
0.0575549
0.0575549
0.0236977
0.0236977
0.0373252
0.0373252
0.0482827
0.0482827
0.0349282
0.0349282
0.0624875
0.0624875
0.0372697
0.0372697
0.0921473
0.0921473
0.0398532
0.0398532
0.0724892
0.0724892
0.0329456
0.0329456
0.0749301
0.0749301
0.0321365
0.0321365
0.0676095
0.0676095
0.0301108
0.0301108
0.0218277
0.0218277
0.0740723
0.0740723
0.00745758
0.00745758
0.0142702
0.0142702
0.0219519
0.0219519
0.0367226
0.0367226
0.0472723
0.0472723
0.018426
0.018426
0.0309282
0.0309282
0.0613713
0.0613713
0.019937
0.019937
0.0668322
0.0668322
0.0544214
0.0544214
0.0804294
0.0804294
0.0286806
0.0286806
0.10021
0.10021
0.0270141
0.0270141
0.0880455
0.0880455
0.0159529
0.0159529
0.0739676
0.0739676
0.0868073
0.0868073
0.0380012
0.0380012
0.0311417
0.0311417
0.0241714
0.0241714
0.0341601
0.0341601
0.0998755
0.0998755
0.0894338
0.0894338
0.0901678
0.0901678
0.0947469
0.0947469
0.0383389
0.0383389
0.078632
0.078632
0.0958617
0.0958617
0.0794439
0.0794439
0.0244911
0.0244911
0.117997
0.117997
0.0744812
0.0744812
0.0755964
0.0755964
0.0306601
0.0306601
0.0204249
0.0204249
0.0367875
0.0367875
0.0541683
0.0541683
0.106394
0.106394
0.00911264
0.00911264
0.0342146
0.0342146
0.0842197
0.0842197
0.0775124
0.0775124
0.0314631
0.0314631
0.0387698
0.0387698
0.0369159
0.0369159
0.00970944
0.00970944
0.078541
0.078541
0.116961
0.116961
0.0783704
0.0783704
0.0383051
0.0383051
0.0524988
0.0524988
0.0367127
0.0367127
0.0770311
0.0770311
0.0764396
0.0764396
0.0412442
0.0412442
0.104856
0.104856
0.0376837
0.0376837
0.0441212
0.0441212
0.0816
0.0816
0.0342106
0.0342106
0.0789539
0.0789539
0.0332766
0.0332766
0.0384059
0.0384059
0.0812878
0.0812878
0.0834908
0.0834908
0.0270949
0.0270949
0.0597907
0.0597907
0.106932
0.106932
0.0321273
0.0321273
0.083482
0.083482
0.01186
0.01186
0.00862216
0.00862216
0.0198684
0.0198684
0.0269814
0.0269814
0.0919764
0.0919764
0.046335
0.046335
0.0412855
0.0412855
0.101245
0.101245
0.0346682
0.0346682
0.0218488
0.0218488
0.0851317
0.0851317
0.0455892
0.0455892
0.253589
0.253589
0.0805685
0.0805685
0.0382874
0.0382874
0.0416026
0.0416026
0.0418399
0.0418399
0.0359204
0.0359204
0.10967
0.10967
0.0444926
0.0444926
0.0678638
0.0678638
0.0918744
0.0918744
0.088885
0.088885
0.088885
0.121908
0.121908
0.121908
0.0623344
0.0623344
0.0105848
0.0105848
0.0457219
0.0457219
0.0385582
0.0385582
0.0828764
0.0828764
0.0290436
0.0290436
0.0752299
0.0752299
0.0167197
0.0167197
0.0167197
0.0419867
0.0419867
0.0457767
0.0457767
0.0702621
0.0702621
0.0480324
0.0480324
0.0089154
0.0089154
0.0491473
0.0491473
0.084914
0.084914
0.51369
0.51369
0.0856334
0.0856334
0.0343735
0.0343735
0.0568616
0.0568616
0.00879308
0.00879308
0.0687448
0.0687448
0.0431992
0.0431992
0.0480237
0.0480237
0.0114734
0.0114734
0.08588
0.08588
0.0362441
0.0362441
0.029923
0.029923
0.071179
0.071179
0.108115
0.108115
0.0789668
0.0789668
0.0671476
0.0671476
0.0523688
0.0523688
0.0867184
0.0867184
0.127788
0.127788
0.0313764
0.0313764
0.0567384
0.0567384
0.0612035
0.0612035
0.112044
0.112044
0.0883149
0.0883149
0.0493998
0.0493998
0.00432719
0.00432719
0.0299178
0.0299178
0.0452278
0.0452278
0.0648758
0.0648758
0.087206
0.087206
0.0857131
0.0857131
0.0471718
0.0471718
0.0765905
0.0765905
0.093205
0.093205
0.0690151
0.0690151
0.0485232
0.0485232
0.0174629
0.0174629
0.0174629
0.0660767
0.0660767
0.0551962
0.0551962
0.0565309
0.0565309
0.0559683
0.0559683
0.0686325
0.0686325
0.0345841
0.0345841
0.0426726
0.0426726
0.0770828
0.0770828
0.0327435
0.0327435
0.0643128
0.0643128
0.0684797
0.0684797
0.0462705
0.0462705
0.0412657
0.0412657
0.34374
0.34374
0.34374
0.00929478
0.00929478
0.0369915
0.0369915
0.1126
0.1126
0.0500953
0.0500953
0.0665723
0.0665723
0.0989817
0.0989817
0.0830215
0.0830215
0.0493403
0.0493403
0.0764457
0.0764457
0.104268
0.104268
0.0499079
0.0499079
0.0728539
0.0728539
0.0435732
0.0435732
0.111685
0.111685
0.0814454
0.0814454
0.0671582
0.0671582
0.0931436
0.0931436
0.111936
0.111936
0.0504871
0.0504871
0.0562214
0.0562214
0.163462
0.163462
0.0800637
0.0800637
0.0603696
0.0603696
0.158419
0.158419
0.0660271
0.0660271
0.695757
0.695757
0.695757
0.116778
0.116778
0.0765928
0.0765928
0.0434418
0.0434418
0.0184971
0.0184971
0.0184971
0.111653
0.111653
0.0640006
0.0640006
0.11757
0.11757
0.0480662
0.0480662
0.332151
0.332151
0.0413722
0.0413722
0.0818366
0.0818366
0.0740269
0.0740269
0.0921893
0.0921893
0.11121
0.11121
0.0363455
0.0363455
0.011867
0.011867
0.0520207
0.0520207
0.0379906
0.0379906
0.0924071
0.0924071
0.114005
0.114005
0.0780384
0.0780384
0.059718
0.059718
0.053005
0.053005
0.0815397
0.0815397
0.0537757
0.0537757
0.0445161
0.0445161
0.0800552
0.0800552
0.0947783
0.0947783
0.0586852
0.0586852
0.0996829
0.0996829
0.0301047
0.0301047
0.109049
0.109049
0.0347163
0.0347163
0.0507431
0.0507431
0.0542315
0.0542315
0.075536
0.075536
0.0283147
0.0283147
0.0659198
0.0659198
0.0808616
0.0808616
0.1198
0.1198
0.0859724
0.0859724
0.0667842
0.0667842
0.0410231
0.0410231
0.0602766
0.0602766
0.029284
0.029284
0.0271887
0.0271887
0.0271887
0.0802634
0.0802634
0.0542934
0.0542934
0.0121446
0.0121446
0.0879513
0.0879513
0.102293
0.102293
0.015635
0.015635
0.0819741
0.0819741
0.0627887
0.0627887
0.047335
0.047335
0.0938017
0.0938017
0.0666116
0.0666116
0.118065
0.118065
0.0156727
0.0156727
0.0688777
0.0688777
0.113093
0.113093
0.0489398
0.0489398
0.106949
0.106949
0.117292
0.117292
0.0300132
0.0300132
0.0300132
0.0419584
0.0419584
0.120067
0.120067
0.0826161
0.0826161
0.0861545
0.0861545
0.0710274
0.0710274
0.030733
0.030733
0.12065
0.12065
0.0577326
0.0577326
0.0731634
0.0731634
0.0440124
0.0440124
0.0261824
0.0261824
0.0557571
0.0557571
0.0418323
0.0418323
0.0954371
0.0954371
0.031674
0.031674
0.0565485
0.0565485
0.0856764
0.0856764
0.0484368
0.0484368
0.0560877
0.0560877
0.097059
0.097059
0.0535851
0.0535851
0.0491895
0.0491895
0.0730054
0.0730054
0.0732821
0.0732821
0.116684
0.116684
0.0667337
0.0667337
0.0651421
0.0651421
0.0738513
0.0738513
0.104708
0.104708
0.0597343
0.0597343
0.0871189
0.0871189
0.0404072
0.0404072
0.0943781
0.0943781
0.105023
0.105023
0.0677644
0.0677644
0.0820507
0.0820507
0.0545825
0.0545825
0.061552
0.061552
0.0498453
0.0498453
0.115418
0.115418
0.0795177
0.0795177
0.0452859
0.0452859
0.0497596
0.0497596
0.113896
0.113896
0.10093
0.10093
0.139294
0.139294
0.0921126
0.0921126
0.024978
0.024978
0.0731163
0.0731163
0.0720503
0.0720503
0.237745
0.237745
0.269855
0.269855
0.119821
0.119821
0.0443439
0.0443439
0.113505
0.113505
0.00328961
0.00328961
0.0861967
0.0861967
0.0546981
0.0546981
0.0079731
0.0079731
0.0699408
0.0699408
0.117041
0.117041
0.120465
0.120465
0.0825314
0.0825314
0.0670879
0.0670879
0.0611971
0.0611971
0.0422848
0.0422848
0.0499765
0.0499765
0.0628933
0.0628933
0.0556686
0.0556686
0.121915
0.121915
0.0581798
0.0581798
0.0625763
0.0625763
0.112487
0.112487
0.0789199
0.0789199
0.0935396
0.0935396
0.116332
0.116332
0.11301
0.11301
0.0521545
0.0521545
0.0946557
0.0946557
0.100605
0.100605
0.111253
0.111253
0.0680012
0.0680012
0.0577037
0.0577037
0.057048
0.057048
0.122343
0.122343
0.102629
0.102629
0.0865031
0.0865031
0.0790742
0.0790742
0.0612418
0.0612418
0.323838
0.323838
0.0399973
0.0399973
0.0693347
0.0693347
0.0875465
0.0875465
0.0662819
0.0662819
0.375477
0.375477
0.375477
0.0762434
0.0762434
0.0461448
0.0461448
0.112353
0.112353
0.106467
0.106467
0.0131404
0.0131404
0.109031
0.109031
0.0484161
0.0484161
0.0381931
0.0381931
0.0232693
0.0232693
0.0232693
0.0832341
0.0832341
0.121735
0.121735
0.0897271
0.0897271
0.0537798
0.0537798
0.0739892
0.0739892
0.0713235
0.0713235
0.0392569
0.0392569
0.0947479
0.0947479
0.0716291
0.0716291
0.0699184
0.0699184
0.0778661
0.0778661
0.119753
0.119753
0.117781
0.117781
0.0365916
0.0365916
0.0774823
0.0774823
0.118488
0.118488
0.0489865
0.0489865
0.121514
0.121514
0.0453698
0.0453698
0.0605877
0.0605877
0.121163
0.121163
0.101578
0.101578
0.0915865
0.0915865
0.0419594
0.0419594
0.0809744
0.0809744
0.0837056
0.0837056
0.118455
0.118455
0.0818647
0.0818647
0.0380611
0.0380611
0.0670895
0.0670895
0.0809099
0.0809099
0.121881
0.121881
0.0246129
0.0246129
0.0721653
0.0721653
0.0537359
0.0537359
0.0554308
0.0554308
0.0781522
0.0781522
0.0594197
0.0594197
0.0506605
0.0506605
0.0943628
0.0943628
0.758354
0.758354
0.758354
0.0751418
0.0751418
0.106619
0.106619
0.0707661
0.0707661
0.0866903
0.0866903
0.11271
0.11271
0.0402873
0.0402873
0.0593344
0.0593344
0.113869
0.113869
0.0765707
0.0765707
0.0701447
0.0701447
0.122733
0.122733
0.114944
0.114944
0.0361087
0.0361087
0.100741
0.100741
0.116591
0.116591
0.0455845
0.0455845
0.0308502
0.0308502
0.032557
0.032557
0.0484163
0.0484163
0.0872852
0.0872852
0.0896365
0.0896365
0.0710554
0.0710554
0.0802705
0.0802705
0.0793577
0.0793577
0.0682777
0.0682777
0.0389767
0.0389767
0.0988969
0.0988969
0.122858
0.122858
0.0454725
0.0454725
0.114717
0.114717
0.0886627
0.0886627
0.0946436
0.0946436
0.0946704
0.0946704
0.106474
0.106474
0.0766351
0.0766351
0.0748201
0.0748201
0.0839944
0.0839944
0.0902116
0.0902116
0.0426555
0.0426555
0.0639148
0.0639148
0.079805
0.079805
0.111876
0.111876
0.0822173
0.0822173
0.104689
0.104689
0.0273611
0.0273611
0.0817571
0.0817571
0.0384718
0.0384718
0.0776194
0.0776194
0.118466
0.118466
0.121813
0.121813
0.100439
0.100439
0.0845034
0.0845034
0.077529
0.077529
0.0727385
0.0727385
0.1195
0.1195
0.114283
0.114283
0.0518865
0.0518865
0.0501316
0.0501316
0.0447804
0.0447804
0.0740465
0.0740465
0.114982
0.114982
0.0712173
0.0712173
0.0402257
0.0402257
0.122107
0.122107
0.112145
0.112145
0.120606
0.120606
0.0858527
0.0858527
0.0607278
0.0607278
0.0874321
0.0874321
0.0880076
0.0880076
0.0465549
0.0465549
0.0708558
0.0708558
0.0808484
0.0808484
0.10604
0.10604
0.0373476
0.0373476
0.1142
0.1142
0.118663
0.118663
0.122903
0.122903
0.0625984
0.0625984
0.0703068
0.0703068
0.102895
0.102895
0.0278689
0.0278689
0.0674477
0.0674477
0.0774821
0.0774821
0.0322104
0.0322104
0.100305
0.100305
0.0391263
0.0391263
0.0333347
0.0333347
0.0461005
0.0461005
0.0900705
0.0900705
0.0755388
0.0755388
0.0447747
0.0447747
0.0326162
0.0326162
0.0548735