/*--------------------------------*- C++ -*----------------------------------*\
  =========                 |
  \\      /  F ield         | OpenFOAM: The Open Source CFD Toolbox
   \\    /   O peration     | Website:  https://openfoam.org
    \\  /    A nd           | Version:  8
     \\/     M anipulation  |
\*---------------------------------------------------------------------------*/
FoamFile
{
    version     2.0;
    format      ascii;
    class       volScalarField;
    location    "0.95";
    object      k;
}
// * * * * * * * * * * * * * * * * * * * * * * * * * * * * * * * * * * * * * //

dimensions      [0 2 -2 0 0 0 0];

internalField   nonuniform List<scalar> 
1924
(
0.0211907
0.0248431
0.0388018
0.0432273
0.0263192
0.0430949
0.0451769
0.0452623
0.0469212
0.0382407
0.0470367
0.0493588
0.027554
0.0492887
0.0565443
0.0562946
0.0282808
0.0527232
0.0188021
0.0526962
0.0243755
0.0337643
0.0268234
0.0570249
0.0337035
0.0450377
0.0446053
0.0327431
0.0256274
0.0500517
0.0283269
0.0372635
0.0205651
0.0278409
0.0331071
0.0266294
0.0392839
0.0278896
0.0509768
0.0290826
0.0433867
0.0256534
0.0443554
0.02522
0.041507
0.0241429
0.0194876
0.0441325
0.00953714
0.0147031
0.0195611
0.0275697
0.0326055
0.0174331
0.0245554
0.0388976
0.0183321
0.0412042
0.0359437
0.0464049
0.0233695
0.0540032
0.0224532
0.0494188
0.015836
0.0440928
0.0489461
0.028171
0.0247003
0.0208572
0.0262831
0.0538684
0.0499094
0.0503464
0.0520242
0.0283826
0.0459552
0.0525034
0.0462204
0.0210381
0.0601636
0.0441194
0.0446766
0.024469
0.0186088
0.0275414
0.0358073
0.0562615
0.0108999
0.0263019
0.0479141
0.0452908
0.0248436
0.0285364
0.0276866
0.0113788
0.0459151
0.0598373
0.0455722
0.0283671
0.0350634
0.0276016
0.0450296
0.0448394
0.0297127
0.0557196
0.0280737
0.0311359
0.0468822
0.0262492
0.0460738
0.0258101
0.0284179
0.0469105
0.0478239
0.0225291
0.0381883
0.0563737
0.0251766
0.0478402
0.0129591
0.00552117
0.0183666
0.0224691
0.0509365
0.0321477
0.0298182
0.054407
0.0265002
0.00974277
0.0485548
0.0319596
0.0238281
0.0466382
0.0284025
0.0299036
0.0301408
0.0271991
0.0574305
0.0313379
0.0416303
0.0508874
0.0100764
0.0124023
0.0393047
0.0120222
0.0318684
0.0284869
0.0474185
0.0235465
0.0445258
0.00540884
0.0301738
0.0320133
0.0425598
0.0329145
0.00564548
0.033528
0.0484702
0.0381586
0.0485875
0.0263991
0.0370431
0.00559377
0.0419108
0.0306635
0.0329175
0.00555323
0.0488147
0.0272954
0.0240541
0.0429349
0.05682
0.0458295
0.0413272
0.0349827
0.0489914
0.0239032
0.0247788
0.0369899
0.0387196
0.0581207
0.0497252
0.0335296
0.00662896
0.0240788
0.0317328
0.0402193
0.0493496
0.0486519
0.0326055
0.0450987
0.0516271
0.0420856
0.0331099
0.00556791
0.0407143
0.0361921
0.0367615
0.036494
0.0151784
0.0264795
0.0304327
0.0452855
0.0255365
0.0399891
0.0418796
0.0322446
0.0298235
0.0242307
0.00580457
0.0276912
0.0584148
0.0337977
0.0409201
0.0536606
0.0475002
0.0335916
0.045038
0.0554426
0.0338186
0.0435733
0.0308637
0.0581052
0.0470116
0.0411857
0.0516124
0.0581311
0.0339725
0.0365766
0.0222357
0.0462351
0.0383707
0.0253272
0.0407334
0.0387486
0.0598072
0.04509
0.0308043
0.00578603
0.0579741
0.0398259
0.0600651
0.0330433
0.0357811
0.0298866
0.0471563
0.0441358
0.0511781
0.0578718
0.0274987
0.00616066
0.034641
0.0281904
0.0513179
0.0588737
0.0455833
0.037999
0.0351815
0.0470357
0.0354999
0.0312916
0.0462733
0.0521703
0.0377473
0.0537699
0.0241454
0.0571064
0.0265498
0.0124149
0.0356963
0.0446452
0.0231978
0.0406094
0.0465604
0.0607425
0.0488056
0.0410485
0.0297066
0.0382997
0.00947224
0.00596889
0.046312
0.0356606
0.013172
0.0495298
0.054875
0.00728408
0.0471909
0.0392968
0.0326341
0.0515728
0.0409371
0.0602086
0.015639
0.0419645
0.0585627
0.0334224
0.056369
0.0599546
0.0077682
0.0301393
0.0608723
0.0473666
0.0488652
0.0427068
0.0244672
0.0610547
0.0371629
0.043702
0.0311527
0.0219802
0.036285
0.0300717
0.0524469
0.0249698
0.0366965
0.0486583
0.0331101
0.0364478
0.0527969
0.0353873
0.0335796
0.0436343
0.0436779
0.0597055
0.040946
0.0403343
0.0440559
0.0557174
0.0380339
0.0490777
0.0293799
0.0520001
0.05566
0.0413918
0.0470452
0.0359131
0.038754
0.0338468
0.0592714
0.0462067
0.0317312
0.0337721
0.0588053
0.0542288
0.019084
0.050999
0.0213234
0.0435985
0.0432424
0.0276248
0.039262
0.0607679
0.0313092
0.0586042
0.00551489
0.0488441
0.0358885
0.00997083
0.0421996
0.059836
0.0609752
0.0472419
0.041243
0.0388833
0.0303068
0.0337906
0.0393
0.03634
0.0614575
0.0373421
0.0393028
0.0582306
0.0458786
0.0193123
0.059595
0.0584894
0.0349194
0.0519524
0.0541082
0.0578332
0.0414856
0.0371134
0.0368603
0.0615908
0.0548089
0.0488574
0.0459529
0.0388598
0.0407379
0.0291866
0.0420587
0.0492552
0.0408377
0.0231206
0.044896
0.0321498
0.0583198
0.0561959
0.0138953
0.0570477
0.0331376
0.0282604
0.00433881
0.0475281
0.0613868
0.0501129
0.0355026
0.0440199
0.042754
0.0288202
0.0520895
0.0431346
0.0421851
0.0456324
0.0607147
0.0600528
0.0274351
0.0454911
0.0602864
0.0333328
0.0613109
0.0317834
0.038598
0.0611882
0.0546202
0.0507202
0.0301568
0.0466598
0.0477176
0.0602696
0.0470097
0.0282199
0.0411364
0.0466813
0.0614136
0.0211182
0.0433036
0.0356285
0.0361432
0.0456251
0.0378648
0.0341554
0.0518404
0.0370459
0.0442555
0.0562012
0.0426465
0.0489344
0.0583603
0.0293403
0.0378384
0.0588252
0.0450322
0.0424335
0.0617091
0.0590934
0.0272374
0.0541465
0.0596168
0.0319044
0.024528
0.0254072
0.0331258
0.0491657
0.0500771
0.0426358
0.0464949
0.0461792
0.0417375
0.0286878
0.0534395
0.0617547
0.0317565
0.0589748
0.0495541
0.0520417
0.0519398
0.0561827
0.0448613
0.0442577
0.0478422
0.0502954
0.0305003
0.0399726
0.0462915
0.0580188
0.0471743
0.0557214
0.0226552
0.0470228
0.0284329
0.0455392
0.0602476
0.0614039
0.054025
0.048043
0.0454505
0.0435257
0.0605741
0.0588608
0.0346353
0.0340154
0.0314777
0.044151
0.0590688
0.0429084
0.0293167
0.0614721
0.0580921
0.0610007
0.0486013
0.0384409
0.0492173
0.0494407
0.0323596
0.0427074
0.0466957
0.0560123
0.0278676
0.0588044
0.0603168
0.0617463
0.039194
0.0424645
0.0548685
0.0229103
0.0414269
0.0452292
0.0252544
0.0541088
0.0287698
0.0257717
0.0320664
0.0502249
0.0445232
0.0314317
0.0254722
0.0361188
0.0304316
0.045013
0.0205651
0.0573698
0.0618186
0.046572
0.0508021
0.048676
0.0517359
0.0598392
0.045568
0.0480371
0.0577224
0.0283656
0.0433795
0.0250213
0.0229363
0.0187247
0.0389641
0.0492155
0.0346585
0.0272577
0.0298801
0.0482137
0.0341514
0.0284583
0.0596586
0.0474631
0.0523355
0.0296389
0.0615731
0.0471192
0.0412642
0.048695
0.0557225
0.0494757
0.0237515
0.0317661
0.0605149
0.0251344
0.0313991
0.0541011
0.0484105
0.0489117
0.0153595
0.0208105
0.0589946
0.0208713
0.0609942
0.0462004
0.0371332
0.0282075
0.0104725
0.0167039
0.0191103
0.0611893
0.0496112
0.0556019
0.0503299
0.0238526
0.00996764
0.0585888
0.0455574
0.04876
0.0287949
0.0542119
0.0429449
0.0587134
0.0296398
0.0213215
0.0358588
0.0584972
0.0235054
0.057375
0.030777
0.0518615
0.0397916
0.031949
0.013187
0.0459619
0.061747
0.0602658
0.0474551
0.0321893
0.0469864
0.0539112
0.0214698
0.0537195
0.0433288
0.0232732
0.0560582
0.043409
0.057246
0.022504
0.028438
0.0106939
0.0407749
0.0350897
0.0455025
0.0618784
0.0477128
0.0482714
0.0296681
0.0368114
0.0372622
0.0577126
0.0316715
0.0572868
0.046293
0.0328348
0.0277558
0.0484522
0.0347039
0.0416016
0.0209499
0.0489592
0.0258306
0.0581491
0.0354405
0.0229999
0.0269726
0.0198903
0.0551419
0.0615944
0.0490948
0.0487564
0.03284
0.0556213
0.0281349
0.0290785
0.0306464
0.0591477
0.02268
0.058935
0.0573497
0.0610081
0.0486348
0.0576668
0.0185167
0.0213406
0.0599687
0.0586441
0.0516214
0.0503135
0.032358
0.0471946
0.0496431
0.0263915
0.0610123
0.0192426
0.048183
0.0475584
0.0503186
0.0366284
0.0276431
0.0572855
0.0212079
0.0565131
0.030093
0.0314186
0.0597951
0.0229514
0.0405645
0.0309127
0.0162722
0.0423586
0.0472777
0.0346895
0.0616191
0.0284307
0.0280846
0.0187411
0.0472956
0.0229263
0.032985
0.0438622
0.0482302
0.0256305
0.056206
0.009981
0.0558021
0.0539124
0.0585366
0.0191044
0.0571463
0.0129059
0.01487
0.0128922
0.0307703
0.0618956
0.0482848
0.0212552
0.0417027
0.031015
0.0505038
0.0325508
0.049835
0.0449845
0.051823
0.024227
0.0169253
0.0489528
0.058955
0.0065809
0.0500704
0.0258008
0.0290895
0.0191379
0.0281722
0.0616601
0.0320861
0.036251
0.0511685
0.0434256
0.0435872
0.0421666
0.0480313
0.0138228
0.0143139
0.0533515
0.0506293
0.049124
0.0568465
0.0607389
0.0317465
0.019448
0.0332098
0.0300651
0.0179371
0.0358616
0.0557769
0.033565
0.0389763
0.0461725
0.0308735
0.0598255
0.0286816
0.0328095
0.0173159
0.0438224
0.0221818
0.0569033
0.0493127
0.0309955
0.0569666
0.0515182
0.0577833
0.0395274
0.0570396
0.0448631
0.0201408
0.0268335
0.0580004
0.0460487
0.0310125
0.0597533
0.0606657
0.0138782
0.0397945
0.0279146
0.0229392
0.0305262
0.0327509
0.046831
0.0570476
0.0568023
0.0458669
0.0551759
0.0476353
0.0295089
0.052628
0.0616947
0.0408398
0.00897109
0.0280242
0.0177372
0.0521345
0.0177153
0.0324086
0.0269549
0.0244349
0.0443079
0.0557471
0.017145
0.0498175
0.0618661
0.0305469
0.0505636
0.0477359
0.0184922
0.0572086
0.0574714
0.028214
0.0336994
0.0318144
0.0336163
0.0564391
0.0518418
0.061552
0.00437595
0.0546726
0.00890048
0.0341243
0.0336304
0.00566389
0.0265913
0.0346625
0.0314229
0.0537101
0.0278227
0.05123
0.0487954
0.0165359
0.056597
0.0565946
0.0417412
0.0255454
0.0286908
0.0163809
0.053149
0.0508349
0.0560431
0.0414801
0.0496175
0.0223279
0.0447257
0.0167292
0.0331997
0.0169633
0.0196971
0.0608677
0.0279993
0.0201667
0.0494712
0.029409
0.0480873
0.0567226
0.020163
0.00630144
0.0374148
0.0468224
0.0280662
0.0532089
0.0506695
0.0355588
0.0325679
0.0447626
0.0542766
0.0490512
0.0500808
0.0303088
0.0584882
0.00555394
0.0563568
0.0586933
0.0593928
0.0611494
0.0554573
0.0228314
0.05766
0.0183314
0.0514441
0.0284375
0.01306
0.0348248
0.0321858
0.0565629
0.0163943
0.0346427
0.0561756
0.034886
0.0462791
0.061511
0.00714544
0.0137188
0.0469025
0.0159008
0.0342695
0.0289917
0.0534687
0.0526239
0.0573667
0.0310957
0.0172875
0.0619237
0.019307
0.057313
0.0447497
0.0535353
0.0347337
0.0298643
0.0547296
0.0334199
0.0270012
0.0400355
0.0298244
0.0523756
0.0278438
0.0348534
0.047128
0.0533465
0.00827843
0.0616665
0.017741
0.00893539
0.0362962
0.0307073
0.0400616
0.016958
0.0567818
0.0245094
0.0329314
0.025129
0.0280189
0.0509499
0.00500153
0.0205146
0.0146899
0.0179655
0.0537206
0.0305889
0.0599574
0.0281869
0.0553343
0.0159115
0.0436185
0.0559182
0.0317388
0.0362401
0.0161081
0.0531998
0.028435
0.0529584
0.0356867
0.0573493
0.0458054
0.0360916
0.0362724
0.0500336
0.0316548
0.0560773
0.0360298
0.0218308
0.0288869
0.0346962
0.048699
0.0313677
0.0393091
0.0452176
0.0276457
0.0303846
0.0438094
0.0585695
0.0295654
0.0279029
0.0530716
0.0266002
0.0513003
0.0522334
0.0195878
0.0338444
0.0155717
0.0253514
0.0533122
0.0281037
0.0296757
0.0573339
0.0580648
0.0604542
0.0365123
0.0302025
0.0159686
0.0551901
0.0360224
0.0608966
0.0618369
0.0361967
0.0354895
0.0281554
0.0323561
0.0578184
0.0566456
0.0582984
0.00516828
0.0527886
0.0536047
0.0392088
0.028487
0.0464981
0.0467624
0.0482786
0.0280403
0.0222204
0.061894
0.0503838
0.0128407
0.0135702
0.0291778
0.0577319
0.0405941
0.0319506
0.0194802
0.05701
0.0565917
0.0490634
0.0545095
0.0364276
0.0607357
0.0376844
0.0372067
0.0394309
0.0298493
0.0563145
0.0180817
0.0306
0.0591994
0.053014
0.0352905
0.0562283
0.0468902
0.0274399
0.037336
0.0196356
0.0276711
0.0451108
0.0187387
0.0527467
0.057144
0.0331994
0.0601397
0.0150155
0.0563732
0.0150995
0.0302625
0.0276554
0.0370287
0.04311
0.00873231
0.0540002
0.0273916
0.032569
0.04061
0.0360739
0.0278445
0.0100031
0.0178674
0.0266326
0.0550323
0.0360582
0.0557538
0.0375924
0.0286887
0.0529248
0.0409106
0.0403506
0.0308367
0.036317
0.0572872
0.0580957
0.0435473
0.0158444
0.0273796
0.0293414
0.0233918
0.0413022
0.0380895
0.00820684
0.0202931
0.0384781
0.0514589
0.0371471
0.0172388
0.0503689
0.00511336
0.00596886
0.0528618
0.0186198
0.0305037
0.0597299
0.0275923
0.0346733
0.0387355
0.01762
0.0551176
0.060148
0.0615094
0.0326902
0.0392226
0.0271354
0.0413105
0.0533922
0.0537887
0.0488334
0.057086
0.0266341
0.027103
0.0334685
0.0616773
0.0609351
0.0132984
0.0280414
0.054745
0.00786889
0.0128663
0.0180019
0.0296398
0.0406801
0.0310661
0.0288568
0.040139
0.00604598
0.0396637
0.0607786
0.0567351
0.0528199
0.0569578
0.0578002
0.0186204
0.0465616
0.0331114
0.0362779
0.0379562
0.00820201
0.040987
0.0307319
0.00887557
0.0138094
0.0362795
0.0571828
0.0291786
0.057496
0.0261069
0.0204089
0.014477
0.0551713
0.0518767
0.0364481
0.0390508
0.0483258
0.0507999
0.0493016
0.0179801
0.0561804
0.0244446
0.0379468
0.0263142
0.00884156
0.0297539
0.0391536
0.0365263
0.0412375
0.0267823
0.0386728
0.0407007
0.0397755
0.0545635
0.0132183
0.0350669
0.026261
0.0161778
0.0470863
0.0573063
0.0374477
0.026322
0.0434103
0.024844
0.0315817
0.0157715
0.0550955
0.0535887
0.0265603
0.0569057
0.0172326
0.0557367
0.0336329
0.026616
0.0554766
0.0291781
0.0610278
0.00560638
0.00807909
0.0391425
0.0310272
0.0276082
0.0295087
0.0572576
0.0179893
0.0157759
0.00814018
0.0415693
0.061278
0.0297944
0.0390131
0.0595646
0.0543602
0.0533187
0.0552533
0.0256452
0.0440338
0.0251058
0.0568972
0.0520333
0.0398085
0.0126064
0.0122113
0.0569989
0.0278585
0.0369754
0.0256396
0.0152008
0.0375453
0.0260719
0.0524693
0.0231954
0.0492241
0.0399125
0.0607468
0.0251235
0.00997733
0.0370634
0.050826
0.0249854
0.00829584
0.0222682
0.0292235
0.0165877
0.0198788
0.0260466
0.0244175
0.0592217
0.0380253
0.0608028
0.0144557
0.0164325
0.0577174
0.0327771
0.0566464
0.0369629
0.0232748
0.016002
0.0112649
0.0470553
0.0539352
0.00887427
0.0512895
0.0422115
0.0393829
0.0563606
0.0386281
0.031549
0.0525079
0.0267494
0.0497315
0.0138931
0.0405642
0.0158469
0.054941
0.0560671
0.0386256
0.0278151
0.0402839
0.0394586
0.0294531
0.0128954
0.0573438
0.0512953
0.0573085
0.047629
0.0405495
0.0245595
0.0558293
0.0544928
0.0408628
0.0135516
0.0290735
0.0607667
0.0482549
0.0139355
0.0528731
0.0389635
0.00584356
0.0545079
0.0497516
0.0516937
0.027106
0.0378551
0.0400432
0.0534907
0.0604802
0.0166452
0.0442736
0.0573773
0.0205194
0.0376011
0.0389415
0.0174804
0.06051
0.0177176
0.0575225
0.0400636
0.0403681
0.0160902
0.0234106
0.0524234
0.00821521
0.0379683
0.0502121
0.0208809
0.0448917
0.0279727
0.0554549
0.0580164
0.00695297
0.040564
0.0513989
0.0566215
0.0433635
0.00384306
0.00440272
0.0132579
0.0159209
0.0512707
0.0124032
0.0345668
0.057169
0.0382958
0.047796
0.0568644
0.0377006
0.00737395
0.0385194
0.0395746
0.0399144
0.0573309
0.0562934
0.0135425
0.0408322
0.0387877
0.013617
0.0328726
0.0174544
0.0144273
0.0175377
0.0405687
0.00888266
0.0180371
0.020171
0.0183491
0.057776
0.00910365
0.0482638
0.0293586
0.037698
0.0184062
0.0501813
0.0180017
0.0605549
0.00475319
0.0194784
0.0272957
0.0117609
0.0501008
0.0525035
0.00720451
0.0411183
0.0196447
0.0391931
0.0163467
0.0421551
0.0393554
0.0534806
0.0288318
0.0551705
0.0380312
0.0296884
0.0379254
0.0180901
0.0543568
0.0265474
0.0448497
0.0602956
0.0382469
0.0169281
0.0345817
0.00812131
0.0125714
0.0176838
0.0578432
0.0594262
0.0375875
0.027966
0.0453842
0.0131277
0.0481023
0.0380579
0.041629
0.060345
0.0573677
0.0152211
0.0448339
0.0578409
0.0476336
0.055897
0.0570387
0.0355702
0.0175998
0.0387599
0.0359511
0.0167456
0.0417011
0.0577106
0.0439228
0.0527042
0.060369
0.0575899
0.0178046
0.0545127
0.0390458
0.034807
0.014662
0.0381805
0.0274866
0.0536297
0.0351525
0.038321
0.0389796
0.0576425
0.038828
0.0579585
0.0378674
0.0553191
0.0150048
0.0578594
0.011659
0.0577908
0.0145199
0.0430429
0.00585685
0.0476792
0.0466731
0.0425598
0.0298394
0.00889203
0.0385236
0.0453368
0.0113685
0.0099502
0.00785848
0.0152335
0.0355174
0.0601418
0.0591893
0.0160698
0.0601069
0.0600712
0.0109123
0.0366064
0.0137492
0.0363721
0.0389152
0.0463758
0.0382582
0.028697
0.0148694
0.0576127
0.01861
0.0348983
0.038878
0.0574159
0.0368988
0.0118891
0.0169336
0.0565338
0.0229651
0.016723
0.031696
0.0172057
0.0357437
0.0580738
0.0170305
0.037054
0.0422792
0.0164834
0.0373223
0.0575256
0.0100263
0.0182557
0.0188106
0.0361139
0.0293413
0.0367811
0.0577445
0.0279964
0.0384972
0.0560376
0.032288
0.00405544
0.00375307
0.0166382
0.0311072
0.0420103
0.032551
0.0486915
0.0385714
0.00731352
0.047689
0.0375425
0.0342948
0.0481878
0.0106065
0.0162642
0.0127038
0.0160088
0.0490693
0.0311173
0.0081054
0.0572461
0.0376158
0.0355417
0.0598142
0.0368235
0.0173747
0.0169133
0.0434254
0.0317311
0.0155411
0.0582316
0.018678
0.0373548
0.027557
0.0059082
0.0337418
0.0377559
0.0398907
0.0163811
0.0573133
0.0585216
0.0346406
0.0332345
0.0585055
0.0573017
0.0326721
0.0585811
0.0375528
0.0120523
0.059296
0.0576798
0.0294918
0.011322
0.0601787
0.0166855
0.0583978
0.0223632
0.0276003
0.00820118
0.0597737
0.036923
0.033853
0.0322393
0.0396431
0.0309367
0.00596255
0.0112002
0.0452497
0.0341866
0.0591393
0.0586649
0.0335702
0.0600027
0.0325079
0.0492598
0.0312794
0.0441601
0.044731
0.0574831
0.00854043
0.0347523
0.0469429
0.0363783
0.0596477
0.0278995
0.0583525
0.0268836
0.0570507
0.00908187
0.0591015
0.0168156
0.00885355
0.035609
0.0483216
0.00887839
0.0595581
0.0319201
0.0311677
0.045835
0.0341534
0.0393441
0.0364327
0.0588832
0.0594513
0.0467073
0.0474758
0.0321955
0.0476008
0.058657
0.0315903
0.0116116
0.0312682
0.0566602
0.0311344
0.0469138
0.0272032
0.0596379
0.00870943
0.00792783
0.0593284
0.0089832
0.0361549
0.0595955
0.0592691
0.0599064
0.0312265
0.0265192
0.0488335
0.0591483
0.0589599
0.032238
0.0596988
0.0325066
0.0570156
0.00608507
0.00512375
0.0292854
0.0598466
0.0573427
0.0138489
0.0350907
0.0229655
0.0375561
0.0589259
0.0571413
0.0235586
0.0593717
0.01912
0.0169094
0.0290448
0.0293837
0.0307511
0.0285202
0.046681
0.0467215
0.0275522
0.0483886
0.0225491
0.0234135
0.0280452
0.0146597
0.0297214
0.0584056
0.0291136
0.00541393
0.00406638
0.0586809
0.0276965
0.0580173
0.0492967
0.0491228
0.05867
0.0590913
0.0256977
0.0577761
0.0269637
0.0560961
0.0588604
0.0226531
0.0470125
0.0289384
0.0463099
0.0260429
0.0223027
0.0559086
0.0220898
0.0319082
0.0339014
0.0573233
0.0465876
0.0581676
0.0487029
0.0284542
0.0568497
0.0218862
0.022576
0.0279508
0.017572
0.0193499
0.0166726
0.0569405
0.00817597
0.0565612
0.0209528
0.0266031
0.0570958
0.0533882
0.0466623
0.0493584
0.0493355
0.0495445
0.0224935
0.0485802
0.0213066
0.0203328
0.0532948
0.05568
0.0555777
0.0278927
0.0448174
0.019373
0.0233179
0.0267124
0.0541026
0.0513437
0.0280717
0.0566058
0.0552518
0.0280797
0.0383907
0.0447696
0.0277774
0.0457193
0.0427239
0.034372
0.0317959
0.0479327
0.0510001
0.00299619
0.00327266
0.0198777
0.00195659
0.034118
0.00406982
0.0152584
0.0181293
0.0246893
0.0206855
0.0176546
0.0156631
0.0195819
0.0158236
0.0168937
0.0191091
0.0494208
0.0481849
0.0492208
0.0442815
0.0475381
0.0494674
0.0497062
0.0275813
0.0147932
0.0139944
0.0184551
0.0153869
0.0161555
0.0202853
0.0495342
0.0470696
0.049135
0.0539124
0.0562237
0.055399
0.00973618
0.00729012
0.021514
0.0151492
0.0201669
0.00590828
0.0134638
0.0289245
0.0106995
0.0138507
0.00935583
0.00488918
0.0493263
0.0186597
0.0134258
0.00621567
0.0084953
0.0287777
0.00557699
0.0240047
0.0304263
0.00737729
0.0194169
0.0353715
0.0204219
0.00437918
0.00424711
0.00487272
0.00329213
0.00672829
0.003256
0.00383411
0.00348047
0.0360867
0.0124092
0.0151344
0.00367793
0.00196555
0.00234427
0.0091499
0.0345538
0.028294
0.00427009
0.00531979
0.00502202
0.0150165
0.0171738
0.0081414
0.0147648
0.051177
0.0108707
0.00519925
0.00455003
0.00359641
0.00635718
0.00373611
0.00671937
0.00411009
0.00410242
0.00387272
0.0021398
0.00238037
0.0354524
0.0344369
0.00871493
0.0521887
0.00427904
0.00514692
0.00751627
0.00768084
0.0167904
0.00560154
0.0331283
0.00797737
0.0208679
0.0195684
0.00279631
0.0161793
0.00905218
0.01097
0.00468012
0.0612278
0.0146074
0.0328745
0.00501808
0.007784
0.0602756
0.00747493
0.00586104
0.00302423
0.0214771
0.0313404
0.0591962
0.00559724
0.0101684
0.00270609
0.0309882
0.0601541
0.0111734
0.0610952
0.0297959
0.00448631
0.0294323
0.0605213
0.0139026
0.0281258
0.0141505
0.0119653
0.0107516
0.00290246
0.0285471
0.00394224
0.00344094
0.0595447
)
;

boundaryField
{
    patch0
    {
        type            kqRWallFunction;
        value           nonuniform List<scalar> 
4010
(
0.0211907
0.0211907
0.0248431
0.0248431
0.0388018
0.0388018
0.0432273
0.0432273
0.0263192
0.0263192
0.0430949
0.0430949
0.0451769
0.0451769
0.0452623
0.0452623
0.0469212
0.0469212
0.0382407
0.0382407
0.0470367
0.0470367
0.0493588
0.0493588
0.027554
0.027554
0.0492887
0.0492887
0.0565443
0.0565443
0.0562946
0.0562946
0.0282808
0.0282808
0.0527232
0.0527232
0.0188021
0.0188021
0.0526962
0.0526962
0.0243755
0.0243755
0.0337643
0.0337643
0.0268234
0.0268234
0.0570249
0.0570249
0.0337035
0.0337035
0.0450377
0.0450377
0.0446053
0.0446053
0.0327431
0.0327431
0.0256274
0.0256274
0.0500517
0.0500517
0.0283269
0.0283269
0.0372635
0.0372635
0.0205651
0.0205651
0.0278409
0.0278409
0.0331071
0.0331071
0.0266294
0.0266294
0.0392839
0.0392839
0.0278896
0.0278896
0.0509768
0.0509768
0.0290826
0.0290826
0.0433867
0.0433867
0.0256534
0.0256534
0.0443554
0.0443554
0.02522
0.02522
0.041507
0.041507
0.0241429
0.0241429
0.0194876
0.0194876
0.0441325
0.0441325
0.00953714
0.00953714
0.0147031
0.0147031
0.0195611
0.0195611
0.0275697
0.0275697
0.0326055
0.0326055
0.0174331
0.0174331
0.0245554
0.0245554
0.0388976
0.0388976
0.0183321
0.0183321
0.0412042
0.0412042
0.0359437
0.0359437
0.0464049
0.0464049
0.0233695
0.0233695
0.0540032
0.0540032
0.0224532
0.0224532
0.0494188
0.0494188
0.015836
0.015836
0.0440928
0.0440928
0.0489461
0.0489461
0.028171
0.028171
0.0247003
0.0247003
0.0208572
0.0208572
0.0262831
0.0262831
0.0538684
0.0538684
0.0499094
0.0499094
0.0503464
0.0503464
0.0520242
0.0520242
0.0283826
0.0283826
0.0459552
0.0459552
0.0525034
0.0525034
0.0462204
0.0462204
0.0210381
0.0210381
0.0601636
0.0601636
0.0441194
0.0441194
0.0446766
0.0446766
0.024469
0.024469
0.0186088
0.0186088
0.0275414
0.0275414
0.0358073
0.0358073
0.0562615
0.0562615
0.0108999
0.0108999
0.0263019
0.0263019
0.0479141
0.0479141
0.0452908
0.0452908
0.0248436
0.0248436
0.0285364
0.0285364
0.0276866
0.0276866
0.0113788
0.0113788
0.0459151
0.0459151
0.0598373
0.0598373
0.0455722
0.0455722
0.0283671
0.0283671
0.0350634
0.0350634
0.0276016
0.0276016
0.0450296
0.0450296
0.0448394
0.0448394
0.0297127
0.0297127
0.0557196
0.0557196
0.0280737
0.0280737
0.0311359
0.0311359
0.0468822
0.0468822
0.0262492
0.0262492
0.0460738
0.0460738
0.0258101
0.0258101
0.0284179
0.0284179
0.0469105
0.0469105
0.0478239
0.0478239
0.0225291
0.0225291
0.0381883
0.0381883
0.0563737
0.0563737
0.0251766
0.0251766
0.0478402
0.0478402
0.0129591
0.0129591
0.00552117
0.00552117
0.0183666
0.0183666
0.0224691
0.0224691
0.0509365
0.0509365
0.0321477
0.0321477
0.0298182
0.0298182
0.054407
0.054407
0.0265002
0.0265002
0.00974277
0.00974277
0.0485548
0.0485548
0.0319596
0.0319596
0.0238281
0.0238281
0.0466382
0.0466382
0.0284025
0.0284025
0.0299036
0.0299036
0.0301408
0.0301408
0.0271991
0.0271991
0.0574305
0.0574305
0.0313379
0.0313379
0.0416303
0.0416303
0.0508874
0.0508874
0.0100764
0.0100764
0.0100764
0.0124023
0.0124023
0.0124023
0.0393047
0.0393047
0.0120222
0.0120222
0.0318684
0.0318684
0.0284869
0.0284869
0.0474185
0.0474185
0.0235465
0.0235465
0.0445258
0.0445258
0.00540884
0.00540884
0.00540884
0.0301738
0.0301738
0.0320133
0.0320133
0.0425598
0.0425598
0.0329145
0.0329145
0.00564548
0.00564548
0.033528
0.033528
0.0484702
0.0484702
0.0381586
0.0381586
0.0485875
0.0485875
0.0263991
0.0263991
0.0370431
0.0370431
0.00559377
0.00559377
0.0419108
0.0419108
0.0306635
0.0306635
0.0329175
0.0329175
0.00555323
0.00555323
0.0488147
0.0488147
0.0272954
0.0272954
0.0240541
0.0240541
0.0429349
0.0429349
0.05682
0.05682
0.0458295
0.0458295
0.0413272
0.0413272
0.0349827
0.0349827
0.0489914
0.0489914
0.0239032
0.0239032
0.0247788
0.0247788
0.0369899
0.0369899
0.0387196
0.0387196
0.0581207
0.0581207
0.0497252
0.0497252
0.0335296
0.0335296
0.00662896
0.00662896
0.0240788
0.0240788
0.0317328
0.0317328
0.0402193
0.0402193
0.0493496
0.0493496
0.0486519
0.0486519
0.0326055
0.0326055
0.0450987
0.0450987
0.0516271
0.0516271
0.0420856
0.0420856
0.0331099
0.0331099
0.00556791
0.00556791
0.00556791
0.0407143
0.0407143
0.0361921
0.0361921
0.0367615
0.0367615
0.036494
0.036494
0.0151784
0.0151784
0.0264795
0.0264795
0.0304327
0.0304327
0.0452855
0.0452855
0.0255365
0.0255365
0.0399891
0.0399891
0.0418796
0.0418796
0.0322446
0.0322446
0.0298235
0.0298235
0.0242307
0.0242307
0.0242307
0.00580457
0.00580457
0.0276912
0.0276912
0.0584148
0.0584148
0.0337977
0.0337977
0.0409201
0.0409201
0.0536606
0.0536606
0.0475002
0.0475002
0.0335916
0.0335916
0.045038
0.045038
0.0554426
0.0554426
0.0338186
0.0338186
0.0435733
0.0435733
0.0308637
0.0308637
0.0581052
0.0581052
0.0470116
0.0470116
0.0411857
0.0411857
0.0516124
0.0516124
0.0581311
0.0581311
0.0339725
0.0339725
0.0365766
0.0365766
0.0222357
0.0222357
0.0462351
0.0462351
0.0383707
0.0383707
0.0253272
0.0253272
0.0407334
0.0407334
0.0387486
0.0387486
0.0387486
0.0598072
0.0598072
0.04509
0.04509
0.0308043
0.0308043
0.00578603
0.00578603
0.00578603
0.0579741
0.0579741
0.0398259
0.0398259
0.0600651
0.0600651
0.0330433
0.0330433
0.0357811
0.0357811
0.0298866
0.0298866
0.0471563
0.0471563
0.0441358
0.0441358
0.0511781
0.0511781
0.0578718
0.0578718
0.0274987
0.0274987
0.00616066
0.00616066
0.034641
0.034641
0.0281904
0.0281904
0.0513179
0.0513179
0.0588737
0.0588737
0.0455833
0.0455833
0.037999
0.037999
0.0351815
0.0351815
0.0470357
0.0470357
0.0354999
0.0354999
0.0312916
0.0312916
0.0462733
0.0462733
0.0521703
0.0521703
0.0377473
0.0377473
0.0537699
0.0537699
0.0241454
0.0241454
0.0571064
0.0571064
0.0265498
0.0265498
0.0124149
0.0124149
0.0356963
0.0356963
0.0446452
0.0446452
0.0231978
0.0231978
0.0406094
0.0406094
0.0465604
0.0465604
0.0607425
0.0607425
0.0488056
0.0488056
0.0410485
0.0410485
0.0297066
0.0297066
0.0382997
0.0382997
0.00947224
0.00947224
0.00596889
0.00596889
0.00596889
0.046312
0.046312
0.0356606
0.0356606
0.013172
0.013172
0.0495298
0.0495298
0.054875
0.054875
0.00728408
0.00728408
0.0471909
0.0471909
0.0392968
0.0392968
0.0326341
0.0326341
0.0515728
0.0515728
0.0409371
0.0409371
0.0602086
0.0602086
0.015639
0.015639
0.0419645
0.0419645
0.0585627
0.0585627
0.0334224
0.0334224
0.056369
0.056369
0.0599546
0.0599546
0.0077682
0.0077682
0.0077682
0.0301393
0.0301393
0.0608723
0.0608723
0.0473666
0.0473666
0.0488652
0.0488652
0.0427068
0.0427068
0.0244672
0.0244672
0.0610547
0.0610547
0.0371629
0.0371629
0.043702
0.043702
0.0311527
0.0311527
0.0219802
0.0219802
0.036285
0.036285
0.0300717
0.0300717
0.0524469
0.0524469
0.0249698
0.0249698
0.0366965
0.0366965
0.0486583
0.0486583
0.0331101
0.0331101
0.0364478
0.0364478
0.0527969
0.0527969
0.0353873
0.0353873
0.0335796
0.0335796
0.0436343
0.0436343
0.0436779
0.0436779
0.0597055
0.0597055
0.040946
0.040946
0.0403343
0.0403343
0.0440559
0.0440559
0.0557174
0.0557174
0.0380339
0.0380339
0.0490777
0.0490777
0.0293799
0.0293799
0.0520001
0.0520001
0.05566
0.05566
0.0413918
0.0413918
0.0470452
0.0470452
0.0359131
0.0359131
0.038754
0.038754
0.0338468
0.0338468
0.0592714
0.0592714
0.0462067
0.0462067
0.0317312
0.0317312
0.0337721
0.0337721
0.0588053
0.0588053
0.0542288
0.0542288
0.019084
0.019084
0.050999
0.050999
0.0213234
0.0213234
0.0435985
0.0435985
0.0432424
0.0432424
0.0276248
0.0276248
0.039262
0.039262
0.0607679
0.0607679
0.0313092
0.0313092
0.0586042
0.0586042
0.00551489
0.00551489
0.0488441
0.0488441
0.0358885
0.0358885
0.00997083
0.00997083
0.0421996
0.0421996
0.059836
0.059836
0.0609752
0.0609752
0.0472419
0.0472419
0.041243
0.041243
0.0388833
0.0388833
0.0303068
0.0303068
0.0337906
0.0337906
0.0393
0.0393
0.03634
0.03634
0.0614575
0.0614575
0.0373421
0.0373421
0.0393028
0.0393028
0.0582306
0.0582306
0.0458786
0.0458786
0.0193123
0.0193123
0.059595
0.059595
0.0584894
0.0584894
0.0349194
0.0349194
0.0519524
0.0519524
0.0541082
0.0541082
0.0578332
0.0578332
0.0414856
0.0414856
0.0371134
0.0371134
0.0368603
0.0368603
0.0615908
0.0615908
0.0548089
0.0548089
0.0488574
0.0488574
0.0459529
0.0459529
0.0388598
0.0388598
0.0407379
0.0407379
0.0291866
0.0291866
0.0420587
0.0420587
0.0492552
0.0492552
0.0408377
0.0408377
0.0231206
0.0231206
0.0231206
0.044896
0.044896
0.0321498
0.0321498
0.0583198
0.0583198
0.0561959
0.0561959
0.0138953
0.0138953
0.0570477
0.0570477
0.0331376
0.0331376
0.0282604
0.0282604
0.00433881
0.00433881
0.00433881
0.0475281
0.0475281
0.0613868
0.0613868
0.0501129
0.0501129
0.0355026
0.0355026
0.0440199
0.0440199
0.042754
0.042754
0.0288202
0.0288202
0.0520895
0.0520895
0.0431346
0.0431346
0.0421851
0.0421851
0.0456324
0.0456324
0.0607147
0.0607147
0.0600528
0.0600528
0.0274351
0.0274351
0.0454911
0.0454911
0.0602864
0.0602864
0.0333328
0.0333328
0.0613109
0.0613109
0.0317834
0.0317834
0.038598
0.038598
0.0611882
0.0611882
0.0546202
0.0546202
0.0507202
0.0507202
0.0301568
0.0301568
0.0466598
0.0466598
0.0477176
0.0477176
0.0602696
0.0602696
0.0470097
0.0470097
0.0282199
0.0282199
0.0411364
0.0411364
0.0466813
0.0466813
0.0614136
0.0614136
0.0211182
0.0211182
0.0433036
0.0433036
0.0356285
0.0356285
0.0361432
0.0361432
0.0456251
0.0456251
0.0378648
0.0378648
0.0341554
0.0341554
0.0518404
0.0518404
0.0370459
0.0370459
0.0370459
0.0442555
0.0442555
0.0562012
0.0562012
0.0426465
0.0426465
0.0489344
0.0489344
0.0583603
0.0583603
0.0293403
0.0293403
0.0378384
0.0378384
0.0588252
0.0588252
0.0450322
0.0450322
0.0424335
0.0424335
0.0617091
0.0617091
0.0590934
0.0590934
0.0272374
0.0272374
0.0541465
0.0541465
0.0596168
0.0596168
0.0319044
0.0319044
0.024528
0.024528
0.0254072
0.0254072
0.0331258
0.0331258
0.0491657
0.0491657
0.0500771
0.0500771
0.0426358
0.0426358
0.0464949
0.0464949
0.0461792
0.0461792
0.0417375
0.0417375
0.0286878
0.0286878
0.0534395
0.0534395
0.0617547
0.0617547
0.0317565
0.0317565
0.0589748
0.0589748
0.0495541
0.0495541
0.0520417
0.0520417
0.0519398
0.0519398
0.0561827
0.0561827
0.0448613
0.0448613
0.0442577
0.0442577
0.0478422
0.0478422
0.0502954
0.0502954
0.0305003
0.0305003
0.0399726
0.0399726
0.0462915
0.0462915
0.0580188
0.0580188
0.0471743
0.0471743
0.0557214
0.0557214
0.0226552
0.0226552
0.0470228
0.0470228
0.0284329
0.0284329
0.0455392
0.0455392
0.0602476
0.0602476
0.0614039
0.0614039
0.054025
0.054025