/*--------------------------------*- C++ -*----------------------------------*\
  =========                 |
  \\      /  F ield         | OpenFOAM: The Open Source CFD Toolbox
   \\    /   O peration     | Website:  https://openfoam.org
    \\  /    A nd           | Version:  8
     \\/     M anipulation  |
\*---------------------------------------------------------------------------*/
FoamFile
{
    version     2.0;
    format      ascii;
    class       volScalarField;
    location    "0.95";
    object      nut;
}
// * * * * * * * * * * * * * * * * * * * * * * * * * * * * * * * * * * * * * //

dimensions      [0 2 -1 0 0 0 0];

internalField   nonuniform List<scalar> 
1924
(
0.0016315
0.00176681
0.00221151
0.00234029
0.0018187
0.00233549
0.00239385
0.00239505
0.00244187
0.00219779
0.00244376
0.00251067
0.0018613
0.00250808
0.0026827
0.0026753
0.00188613
0.00259645
0.00153627
0.00259645
0.00175366
0.00206332
0.00183602
0.00269774
0.00206164
0.0023806
0.00236569
0.002033
0.0017972
0.00251789
0.00188547
0.00217134
0.00160619
0.00186899
0.00204312
0.00182721
0.00222269
0.00187833
0.00253808
0.00191005
0.00233713
0.00179777
0.00236309
0.00178128
0.00229338
0.0017422
0.00156586
0.00236648
0.00109769
0.00136342
0.00156875
0.00186283
0.00202403
0.00148443
0.00175461
0.00221883
0.00151708
0.00228634
0.00213658
0.00240965
0.00171377
0.0026192
0.00167961
0.00249643
0.00141479
0.00236557
0.00248383
0.00187953
0.00176321
0.00161977
0.00182002
0.00261488
0.00250672
0.00253005
0.00257092
0.00189107
0.0024172
0.00258804
0.00242019
0.00162648
0.00276083
0.0023521
0.0023763
0.00175753
0.00152588
0.00185573
0.0021303
0.00267762
0.0011734
0.00181972
0.00245333
0.00238172
0.00176552
0.00189037
0.00186883
0.00120017
0.00241578
0.00275515
0.00238501
0.00189068
0.00210766
0.00186765
0.00236904
0.00236724
0.00192648
0.0026648
0.0018823
0.00197751
0.0024242
0.00181266
0.00241978
0.00180171
0.00189246
0.00243645
0.00246544
0.00168594
0.00219518
0.00267478
0.00177567
0.00246738
0.0012744
0.000318191
0.00152804
0.00168403
0.00253877
0.00200739
0.00193824
0.00263134
0.00182309
0.000391002
0.00249239
0.00201643
0.000201507
0.00242975
0.00189626
0.0019345
0.00195416
0.00185358
0.0027067
0.00198653
0.00229839
0.0025367
0.000102808
0.000113557
0.0022305
0.00122893
0.00199912
0.00189416
0.00244178
0.00171808
0.00237178
0.000157479
0.0019516
0.00201493
0.00232018
0.00202994
0.000321739
0.00205854
0.00249008
0.000255109
0.00248113
0.00182472
0.00217189
0.000320266
0.00229961
0.00195889
0.00203068
0.000241902
0.00249719
0.00185005
0.00174027
0.00233084
0.00268756
0.0023938
0.0022892
0.00210318
0.00249099
0.000402405
0.00176116
0.00217037
0.00220459
0.0027134
0.00251978
0.00204821
0.000913961
0.00174415
0.0020038
0.00224403
0.00251341
0.0024854
0.00202835
0.00238998
0.0025737
0.00230975
0.00203334
0.000159776
0.00225782
0.00213581
0.00215151
0.00214163
0.000302109
0.00182468
0.00195332
0.00239444
0.00179243
0.00223783
0.00230507
0.00202234
0.00193986
0.000153724
0.000326245
0.00186562
0.00272741
0.0020522
0.00226372
0.00261818
0.00244592
0.00205827
0.00238808
0.00265325
0.00206246
0.00234548
0.00196752
0.00272067
0.00244223
0.00227319
0.00257394
0.00271699
0.00205738
0.00214165
0.000272225
0.00240299
0.00219495
0.000364427
0.00226163
0.000194221
0.00275669
0.00238899
0.00196588
0.000162892
0.0027092
0.00223043
0.00276179
0.00204442
0.000346907
0.00194307
0.00244554
0.00236829
0.002557
0.00271039
0.00187248
0.000287842
0.00207609
0.00188264
0.00256493
0.00273629
0.00239633
0.00217611
0.00210162
0.0024419
0.00210916
0.00197962
0.00240721
0.00258452
0.00218518
0.00261036
0.00174291
0.00269148
0.00182739
0.000273369
0.00211464
0.00237486
0.0017105
0.00225155
0.00241287
0.00277185
0.00249358
0.00227072
0.00193606
0.00219021
0.000275751
0.000117935
0.00240498
0.00210801
0.00128577
0.00251034
0.00264938
0.000305418
0.00244502
0.00221348
0.0020249
0.00255195
0.00226426
0.00276336
0.00140448
0.00230106
0.00272928
0.00205427
0.00267392
0.00275816
0.000180955
0.00194846
0.00277754
0.00244412
0.00249439
0.00231106
0.0017531
0.00278068
0.00215298
0.00234937
0.00198453
0.00166071
0.00212518
0.00194557
0.00259397
0.00177161
0.00214324
0.00248711
0.00203698
0.00213166
0.00258478
0.00210327
0.0020631
0.00234716
0.00234298
0.00274953
0.0022611
0.00224765
0.00236534
0.00266836
0.00217952
0.00248828
0.00192258
0.00257857
0.00265488
0.00227546
0.00242768
0.00212664
0.002196
0.00206849
0.00273943
0.00241651
0.00200102
0.00206291
0.00273254
0.0026223
0.000235315
0.00254125
0.00163832
0.00233976
0.00233575
0.000288888
0.000514111
0.00277369
0.00198954
0.00272323
0.000832092
0.00249102
0.00211925
0.00112222
0.00229155
0.00275314
0.00277772
0.00243376
0.00228191
0.00222351
0.00195496
0.00205622
0.00221016
0.00213502
0.00278828
0.00215709
0.00222166
0.00271296
0.00240036
0.000358851
0.00274766
0.00272447
0.00210418
0.0025663
0.00261909
0.00270574
0.00227782
0.00214833
0.00214349
0.00279059
0.00263435
0.00248354
0.00240344
0.00221919
0.000461224
0.00191681
0.00229616
0.00249407
0.00226449
0.000128132
0.00237933
0.00201593
0.00272451
0.00266954
0.00132243
0.0026864
0.00204124
0.00188197
7.28119e-05
0.00244254
0.00278597
0.00251894
0.00210933
0.00235707
0.00230656
0.00190424
0.00257735
0.00233779
0.00229071
0.0024068
0.0027704
0.00275572
0.00185128
0.00240377
0.00276063
0.00204131
0.00278415
0.00200391
0.00221303
0.00278105
0.00264331
0.00252798
0.00195067
0.0024198
0.00244819
0.00275986
0.00242952
0.0018831
0.00227008
0.00242397
0.00278507
0.00163077
0.00233863
0.00212605
0.00212102
0.00239723
0.00217162
0.00207248
0.00256317
0.000162874
0.00234582
0.00266624
0.00231304
0.002486
0.00271967
0.00192311
0.00217171
0.00273504
0.00238355
0.00231028
0.00279241
0.00273422
0.00184911
0.00261925
0.00274356
0.00200968
0.00175513
0.00178448
0.00203978
0.00249245
0.00251789
0.00230247
0.0024238
0.00241851
0.00229623
0.00190035
0.00259887
0.0027937
0.00199599
0.00272865
0.00249265
0.00257546
0.00256466
0.00266811
0.00236352
0.00235615
0.00245253
0.00252369
0.0019628
0.00224991
0.00241665
0.00270796
0.00243607
0.00266922
0.00168828
0.00243407
0.00189123
0.0024046
0.00275758
0.00278574
0.00261535
0.00245827
0.00239803
0.00234407
0.00276343
0.00272843
0.00208078
0.00207722
0.00199142
0.0023693
0.00273105
0.00232671
0.00192295
0.0027852
0.00270829
0.00277679
0.00247619
0.00218999
0.00249349
0.00249972
0.00202434
0.00231672
0.0024273
0.00266281
0.00187145
0.0027252
0.00275934
0.00279191
0.00220861
0.00230832
0.00263327
0.00169506
0.00229003
0.00237617
0.00178205
0.00262698
0.00190392
0.00179322
0.00200741
0.00252057
0.00236181
0.00198584
0.00179036
0.00213968
0.00196116
0.00238321
0.00160779
0.0026923
0.00279497
0.00242473
0.00253244
0.00247531
0.00255817
0.00275558
0.00240101
0.00245945
0.00270233
0.00188958
0.00234508
0.0017669
0.00169302
0.00153488
0.00221642
0.00248314
0.0020963
0.001852
0.00193843
0.00246442
0.00206738
0.00188805
0.0027425
0.00246038
0.00257198
0.00193438
0.00279061
0.00243771
0.00229039
0.00247834
0.00265359
0.00249951
0.00172018
0.00199866
0.00276011
0.00177139
0.00199314
0.00261591
0.0024759
0.00248432
0.00139246
0.00161506
0.00272364
0.0016224
0.00277722
0.00241614
0.00216768
0.00188356
0.000289804
0.00144992
0.00155071
0.00277602
0.0025019
0.00266559
0.0025218
0.00173246
0.00112122
0.00271632
0.00238498
0.00247361
0.00190528
0.00262931
0.00231932
0.00271991
0.00192755
0.00164079
0.00213198
0.00271938
0.0017122
0.00270443
0.0019726
0.00255976
0.00222504
0.00200321
0.00128824
0.00240592
0.0027911
0.00275832
0.00245888
0.0020186
0.0024311
0.00261028
0.00163555
0.00260428
0.00232484
0.00170312
0.00266278
0.00234723
0.00269981
0.00168307
0.00189267
0.0011605
0.00227604
0.0021017
0.0023983
0.00279669
0.00245434
0.00246667
0.00193573
0.00216147
0.00218366
0.00270024
0.00200187
0.00269315
0.00242051
0.0020308
0.00186827
0.00247202
0.0020912
0.00227174
0.00161488
0.00248528
0.0018032
0.00270712
0.00212107
0.00169535
0.00183589
0.00157712
0.00263921
0.00279253
0.00248799
0.00246818
0.00203823
0.00265
0.00188162
0.00191537
0.00196813
0.00273068
0.00168868
0.00273695
0.00269115
0.00277939
0.00248082
0.00270036
0.00152564
0.00162994
0.00274482
0.0027131
0.00255173
0.00251926
0.00202356
0.00243608
0.00250134
0.00182487
0.00277035
0.00154948
0.00246758
0.00244261
0.0025391
0.00215763
0.00186425
0.00268294
0.00162684
0.00267051
0.00194994
0.0019931
0.00275062
0.00170179
0.00226967
0.00197107
0.00143136
0.00232474
0.00244485
0.00210077
0.00278699
0.00189286
0.00187945
0.00153307
0.00244668
0.00170134
0.00204286
0.00233901
0.00246813
0.00179639
0.00265993
0.00111779
0.00265485
0.00260751
0.00271431
0.00154283
0.00268618
0.00028484
0.000157909
0.001274
0.00196575
0.00279759
0.00246877
0.00163063
0.00229296
0.00198003
0.00252274
0.00202935
0.00250512
0.00238721
0.00255535
0.00174851
0.00145938
0.00248413
0.00272701
0.000202263
0.00253135
0.0004154
0.00191594
0.00154532
0.0018838
0.00279527
0.00201422
0.00214566
0.00254895
0.0023403
0.00234478
0.00228736
0.00246384
0.00131881
0.00134232
0.00259153
0.00253015
0.00248732
0.00268392
0.00277786
0.00200344
0.00156055
0.00204983
0.00194903
0.00149738
0.00213948
0.00265274
0.00206397
0.00221688
0.00242046
0.00196914
0.00274077
0.00190165
0.00203696
0.00147264
0.00236366
0.00167246
0.00267602
0.00249537
0.00197462
0.00269626
0.00255202
0.00270228
0.00224608
0.0026759
0.00237859
0.00158905
0.00183814
0.00269688
0.00241532
0.0019798
0.00275247
0.00276155
0.0013252
0.00225916
0.00187375
0.0016978
0.00195705
0.00203515
0.0024216
0.00267969
0.00267876
0.00240316
0.00263617
0.00245284
0.00193031
0.00257943
0.00278967
0.00226937
0.000241354
0.00187798
0.00149251
0.00256121
0.00149038
0.00202429
0.00183643
0.00175604
0.00234696
0.00265165
0.00146588
0.00250303
0.00279631
0.00196465
0.00252203
0.00245406
0.00152473
0.00268725
0.0026955
0.00188542
0.00206259
0.00200543
0.00205999
0.00266657
0.00255134
0.00279626
6.84785e-05
0.0026445
0.000261642
0.00207814
0.00206254
0.000843202
0.00183018
0.00210009
0.00199284
0.00259906
0.0018708
0.00255036
0.00247776
0.00144201
0.00266697
0.0026707
0.00230669
0.00179511
0.00190166
0.00143456
0.00259163
0.0025277
0.00266162
0.00229652
0.00250656
0.00167811
0.00238001
0.00144925
0.00204911
0.00146215
0.00157591
0.00278324
0.00187696
0.00159405
0.00249968
0.00192636
0.00246938
0.00267278
0.00159378
0.000233666
0.00218664
0.00241295
0.00188018
0.00258501
0.00253155
0.0021162
0.00202927
0.00237923
0.00263488
0.0024831
0.00250864
0.00195626
0.00272853
0.000198204
0.00267259
0.00271397
0.00273055
0.00277512
0.00264223
0.00169761
0.00269967
0.00152102
0.0025499
0.00189277
0.00128074
0.0020987
0.0020171
0.00266585
0.00143481
0.00208973
0.0026589
0.00209736
0.00241209
0.00278497
8.77519e-05
0.00131225
0.00243131
0.00141443
0.00208241
0.001912
0.00259469
0.00257911
0.00269131
0.00198166
0.00147675
0.00280076
0.00156017
0.00269442
0.0023596
0.00260968
0.00209341
0.00194151
0.00262218
0.00205645
0.00184419
0.0022538
0.00193532
0.00256324
0.00187199
0.0020969
0.00243543
0.00258736
0.00013355
0.00279871
0.00149813
0.000270689
0.00214428
0.00196899
0.0022524
0.00146296
0.00267521
0.00175854
0.00204067
0.000205406
0.0018781
0.00252853
9.83735e-05
0.00160821
0.000156419
0.00150479
0.00259651
0.00196573
0.00276598
0.00188344
0.00265757
0.00141177
0.00234742
0.0026606
0.00200225
0.00214023
0.00142142
0.0025869
0.00189188
0.00258577
0.00212488
0.00269413
0.00238472
0.00213007
0.00213783
0.00250558
0.00199965
0.00265618
0.00213038
0.00165896
0.00190769
0.00209664
0.00247235
0.00199028
0.00222569
0.00237917
0.00186544
0.00195507
0.00235066
0.00273362
0.0019308
0.00187427
0.00258202
0.00183064
0.00253634
0.00255768
0.00157177
0.00207009
0.00140011
0.00178811
0.00258412
0.00188085
0.00192994
0.00269096
0.00272009
0.00275692
0.00214237
0.00195168
0.0014184
0.00263299
0.00213299
0.00276893
0.00279566
0.00213746
0.00211329
0.00188168
0.00202212
0.00269434
0.00267848
0.00270497
0.000114386
0.00257263
0.00260587
0.00222634
0.00189384
0.00241674
0.00243394
0.00246908
0.0018814
0.00167465
0.00279873
0.0025135
0.00126726
0.00130324
0.0019177
0.00271334
0.00226242
0.00200901
0.00156603
0.00268124
0.00268631
0.00248055
0.00261387
0.00214794
0.00277899
0.00218094
0.00216835
0.00223108
0.00193993
0.00266468
0.00150921
0.00196447
0.00274096
0.00260308
0.00211519
0.00266469
0.00242564
0.00185854
0.00216851
0.0015724
0.00186619
0.00236895
0.00153532
0.00257722
0.00268973
0.0020497
0.0027705
0.00137239
0.00266291
0.00137748
0.00195346
0.00186433
0.00215877
0.0023287
0.000267319
0.0026006
0.00185477
0.002029
0.000586967
0.00213269
0.00187139
0.00112134
0.00149817
0.00183158
0.00265313
0.00213026
0.00264631
0.00217339
0.00190109
0.00257424
0.000589349
0.000584674
0.00197185
0.00213946
0.00269123
0.00271907
0.00233857
0.00141281
0.00185644
0.00192277
0.00171664
0.000592367
0.00219416
0.00101955
0.00159834
0.002203
0.00253875
0.00216874
0.00147265
0.0025116
8.61673e-05
9.29918e-05
0.00259912
0.00153036
0.00196111
0.00273913
0.00186276
0.00209576
0.00220873
0.00148829
0.00262835
0.00274928
0.00278582
0.00203417
0.00222282
0.00184566
0.000592545
0.00260229
0.00259419
0.00247314
0.00268277
0.00182793
0.00184715
0.0020584
0.00279055
0.00277724
0.00129181
0.00187935
0.0026182
0.000119051
0.00126952
0.0015045
0.00193245
0.000587717
0.00197947
0.00190659
0.000582505
0.000206959
0.00223371
0.00277799
0.00267222
0.00257051
0.00268598
0.00269588
0.00153008
0.00241546
0.00204377
0.00213639
0.00218512
0.000129645
0.000589694
0.00196857
0.00025467
0.00131716
0.00213667
0.00270351
0.0019172
0.00268991
0.0018133
0.00160393
0.00134939
0.00265354
0.00254863
0.00214236
0.00221897
0.00247686
0.00252192
0.00248448
0.00150281
0.00265598
0.00175442
0.00218291
0.00181975
0.000268752
0.00193594
0.00222183
0.0021499
0.000591641
0.00183517
0.00220958
0.00226436
0.000578915
0.00261338
0.00128984
0.00210748
0.00181565
0.00142546
0.00242838
0.00269081
0.0021699
0.00181988
0.00233329
0.00176036
0.00199683
0.00141044
0.00265889
0.00258967
0.00182951
0.00268239
0.00147232
0.00264345
0.00206491
0.00183461
0.00263616
0.0019168
0.00277233
9.07061e-05
0.000108975
0.00221916
0.00197805
0.0018641
0.00193066
0.00268771
0.0015031
0.00140791
0.00101394
0.000595311
0.00277923
0.00193687
0.00221427
0.00273613
0.00260857
0.0025837
0.00263025
0.00179694
0.00234929
0.00177736
0.00268113
0.0025521
0.0022368
0.00125883
0.00123849
0.00267781
0.00187241
0.00215645
0.00179604
0.000159382
0.00217096
0.00181047
0.00256294
0.00169775
0.00248244
0.000579846
0.00277129
0.00177879
0.000336165
0.00215934
0.00252226
0.00177048
0.000130354
0.00167479
0.00191794
0.00144177
0.00158364
0.00181038
0.00175187
0.00272868
0.00219137
0.00277303
0.00134779
0.00143881
0.00271098
0.00203556
0.00266759
0.00216189
0.00171231
0.00141862
0.00119526
0.00242768
0.00259988
0.000269492
0.00253393
0.000602832
0.0022269
0.00265854
0.00220262
0.00199561
0.00256498
0.00183431
0.00249545
0.00132277
0.00225726
0.00140906
0.00262412
0.00265072
0.00220196
0.00187043
0.000292178
0.00222788
0.00192495
0.0012739
0.00269245
0.00253517
0.00270454
0.00244285
0.000293298
0.00175794
0.00264578
0.00263803
0.000294503
0.0013079
0.00191216
0.00276581
0.00247644
0.00132387
0.00257452
0.00221216
0.000181075
0.00261447
0.00249706
0.00254579
0.00184677
0.0021805
0.000291121
0.00259032
0.00275865
0.00144797
0.00235629
0.00269282
0.00160939
0.00217308
0.00221128
0.00148066
0.0027679
0.00149102
0.00269224
0.000291608
0.000292731
0.00142437
0.0017162
0.0025657
0.00012954
0.00218184
0.00250952
0.000375814
0.00237328
0.00187566
0.00263722
0.00270377
0.000186656
0.000293318
0.00254066
0.00266537
0.000613993
8.05538e-05
8.61199e-05
0.00129078
0.00141736
0.00253843
0.00124832
0.00209052
0.00267942
0.00219794
0.00244829
0.00267105
0.00217361
0.000120568
0.00219921
0.000288976
0.000290265
0.00268628
0.00265761
0.00130657
0.000294249
0.00221151
0.00130932
0.00203807
0.000383869
0.00134376
0.000386012
0.00225841
0.0002695
0.0015095
0.00159041
0.000395203
0.002701
0.000277089
0.00246142
0.00192188
0.000563661
0.000395108
0.00251042
0.000391253
0.00276711
0.000175554
0.0004076
0.00185275
0.00121616
0.00250986
0.00256835
0.000161868
0.000295625
0.000406794
0.00221892
0.00143343
0.00230248
0.0022241
0.00259211
0.00190378
0.00263364
0.00218814
0.00193123
0.00218021
0.00039122
0.00261356
0.00182619
0.00237439
0.00276317
0.00219132
0.00145833
0.00209076
0.00012866
0.00125827
0.000386564
0.0027006
0.00273511
0.00216972
0.00187478
0.00238978
0.00128189
0.00245922
0.00219034
0.000298548
0.00276461
0.0026839
0.0013822
0.000616328
0.00270129
0.00244884
0.00265172
0.00267593
0.00211094
0.000386363
0.00220628
0.00213122
0.000377028
0.0022939
0.00269959
0.000619614
0.00257416
0.00275722
0.00268982
0.000388844
0.00261826
0.00221727
0.00209716
0.000354017
0.00218847
0.00185886
0.00259671
0.00209931
0.000283833
0.00221278
0.00270484
0.00221203
0.00270287
0.00217883
0.00263799
0.00137627
0.00269713
0.00121198
0.00269871
0.00134895
0.00233079
0.000111427
0.00063544
0.000628887
0.00030363
0.0019391
0.000273811
0.00219943
0.00239022
0.00119688
0.000284906
0.000126484
0.00138718
0.00210659
0.00275209
0.00273008
0.00142332
0.00275847
0.00275639
0.000305427
0.00215193
0.00131394
0.00213289
0.00221225
0.00241664
0.00219136
0.00189927
0.00136694
0.002698
0.00039685
0.0020885
0.00221209
0.00270056
0.0021597
0.00122386
0.000189127
0.00266744
0.000440087
0.000188274
0.00199259
0.000191241
0.00211377
0.00270142
0.000190234
0.00216693
0.000599398
0.000187042
0.00216298
0.00271207
0.000290642
0.000197269
0.000199324
0.00213631
0.00192026
0.00214611
0.00269326
0.0018757
0.00219975
0.00265557
0.00201675
8.06748e-05
7.76156e-05
0.000187633
0.00198186
0.00230506
0.00201824
0.000643277
0.00220263
0.00024881
0.000635665
0.00217809
0.00207332
0.000639435
0.000299242
0.00142964
0.00126454
0.000184547
0.000646269
0.0019738
0.000128653
0.00270223
0.00217397
0.00211231
0.0027496
0.00215784
0.000191893
0.000189378
0.00234269
0.001993
0.000182022
0.00270591
0.000396847
0.00216495
0.0018607
0.000111546
0.000266499
0.000281924
0.000582567
0.00143385
0.00269507
0.00271286
0.00208476
0.00204042
0.00271611
0.00270635
0.00203199
0.0027168
0.00217695
0.000160796
0.00273277
0.00271454
0.00192754
0.000307401
0.00275384
0.000188266
0.00271235
0.00168375
0.000240893
0.000263668
0.00274675
0.00216007
0.00206261
0.00201316
0.000290442
0.00196876
0.000112617
0.000302612
0.000626686
0.0020707
0.00272756
0.00271646
0.00206196
0.00274948
0.00202083
0.000647393
0.00198816
0.000309662
0.000311669
0.00269048
0.000134626
0.00210251
0.000634167
0.00214041
0.00274114
0.0018717
0.00270895
0.0018336
0.00268099
0.00106915
0.00272824
0.000188812
0.00013651
0.00211964
0.000320409
0.000134849
0.00273752
0.00200335
0.00197733
0.000311412
0.00208096
0.000289021
0.000557406
0.0027214
0.00273648
0.000314474
0.000643366
0.00201781
0.000317738
0.00271937
0.00199096
0.00015683
0.00198787
0.00267106
0.00198091
0.000633342
0.00184636
0.00274005
0.000135575
0.0001293
0.00273209
0.00106348
0.00214576
0.00273841
0.00273305
0.00274629
0.00198061
0.00181708
0.000322284
0.00272747
0.00272347
0.0020205
0.00274088
0.00202724
0.00269407
0.000226915
0.000104338
0.00191907
0.00274489
0.00269764
0.00131916
0.00210262
0.000440287
0.000282738
0.00272276
0.00268385
0.000446495
0.00273316
0.000401526
0.000189472
0.00191095
0.0019255
0.00197297
0.00189736
0.000315923
0.000317926
0.00186005
0.000650878
0.000435868
0.000445155
0.00187899
0.00135767
0.00193807
0.0027108
0.00191585
0.000214198
9.29563e-05
0.00271705
0.00186643
0.00269951
0.000647673
0.000323151
0.00271669
0.00272625
0.00179662
0.00269208
0.00183998
0.00265895
0.00272103
0.000437715
0.000320063
0.001911
0.000631698
0.00180317
0.000217108
0.00265982
0.000215686
0.000523165
0.000269126
0.00268526
0.000316295
0.00270516
0.000649754
0.00189386
0.00267754
0.000215127
0.000437117
0.00187587
0.000385181
0.000406599
0.000188907
0.00267672
0.000129135
0.0026666
0.000210368
0.00182955
0.00268014
0.00259207
0.000317903
0.000323308
0.000646934
0.000647488
0.000437641
0.000647793
0.000211436
0.00020722
0.00258378
0.00264674
0.00264027
0.00187391
0.000310314
0.000202345
0.000444985
0.00183351
0.00261019
0.0025391
0.00188036
0.00266965
0.00263248
0.00188104
0.000284112
0.000615721
0.0018702
0.000314447
0.00060058
0.000267412
0.000514705
0.00244801
0.00253218
7.96666e-05
0.000166556
0.000204842
6.43659e-05
0.000548087
9.28624e-05
0.000179988
0.000391104
0.00023155
0.000416751
0.000193666
0.000182137
0.000406452
0.000183468
0.000189272
0.000400483
0.000646991
0.000319729
0.000323341
0.000306451
0.000635527
0.000323393
0.000648186
0.000244652
0.000177544
0.000171433
0.000394324
0.000180244
0.000185273
0.000413923
0.000323591
0.00242032
0.00250441
0.00260538
0.00265825
0.00263941
0.00028201
0.000122079
0.00164825
0.00138003
0.00159914
0.000110703
0.00130095
0.00190625
0.00116498
0.00131963
0.000278115
0.000188782
0.00251144
0.00153765
0.000150768
0.000113123
0.000120062
0.00190177
0.000836954
0.00174126
0.00195482
0.00011142
0.00156402
0.00210852
0.0016072
7.71256e-05
7.59917e-05
9.04846e-05
7.43114e-05
0.000113655
7.39025e-05
8.02606e-05
7.64057e-05
0.00213126
0.000290399
0.00138313
7.22639e-05
5.32071e-05
5.81472e-05
0.000248318
0.00208327
0.00188481
8.33643e-05
6.54978e-05
6.36296e-05
0.00137623
0.00147283
0.000177547
0.00136069
0.0025602
0.00116976
0.000807775
0.000186984
8.03286e-05
0.000255619
0.000158195
0.000270197
0.000165967
0.000165732
0.000161064
5.12417e-05
5.40281e-05
0.00211086
0.00207871
0.00104853
0.0025865
9.93285e-05
0.000171799
0.000167981
0.000984406
0.00145779
0.000184551
0.00203878
0.00100243
0.00162171
0.00157135
7.18736e-05
0.00143427
0.00106762
0.00117859
0.000178937
0.00278329
0.00135994
0.00202959
9.07961e-05
0.000989613
0.0027655
0.000970236
0.000147379
7.04434e-05
0.00164366
0.00198308
0.00274437
0.000839003
0.00113569
6.21841e-05
0.00197113
0.00276123
0.00119095
0.00278098
0.0019339
0.000174533
0.00192166
0.00276963
0.00132198
0.00187738
0.00133372
0.00122699
0.00116403
4.76987e-05
0.00189127
0.000144388
6.48467e-05
0.0027512
)
;

boundaryField
{
    patch0
    {
        type            nutkWallFunction;
        Cmu             0.09;
        kappa           0.41;
        E               9.8;
        value           nonuniform List<scalar> 
4010
(
0.000164234
0.000164234
0.000204775
0.000204775
0.000206561
0.000206561
0.000225102
0.000225102
0.000211363
0.000211363
0.000245277
0.000245277
0.000260285
0.000260285
0.000273999
0.000273999
0.000278863
0.000278863
0.000205188
0.000205188
0.00027919
0.00027919
0.000285497
0.000285497
0.000215495
0.000215495
0.000285301
0.000285301
0.000300867
0.000300867
0.000302238
0.000302238
0.000215806
0.000215806
0.000292948
0.000292948
0.000147567
0.000147567
0.000293256
0.000293256
0.000191527
0.000191527
0.000238204
0.000238204
0.000186124
0.000186124
0.00029609
0.00029609
0.000238219
0.000238219
0.000273538
0.000273538
0.000272319
0.000272319
0.000189216
0.000189216
0.000206515
0.000206515
0.000283476
0.000283476
0.000200666
0.000200666
0.000247821
0.000247821
0.000167541
0.000167541
0.000214598
0.000214598
0.000191229
0.000191229
0.000185
0.000185
0.000250802
0.000250802
0.000206263
0.000206263
0.000284935
0.000284935
0.000218898
0.000218898
0.000260305
0.000260305
0.000180769
0.000180769
0.000262491
0.000262491
0.000191441
0.000191441
0.00026269
0.00026269
0.000203652
0.000203652
0.000148616
0.000148616
0.000270808
0.000270808
0.000106792
0.000106792
0.000158422
0.000158422
0.000159676
0.000159676
0.000215533
0.000215533
0.000227804
0.000227804
0.000142926
0.000142926
0.000205267
0.000205267
0.0002071
0.0002071
0.00014461
0.00014461
0.000262155
0.000262155
0.00019753
0.00019753
0.000275971
0.000275971
0.000195098
0.000195098
0.000296824
0.000296824
0.000191623
0.000191623
0.000283862
0.000283862
0.000134832
0.000134832
0.000270824
0.000270824
0.000284074
0.000284074
0.000219406
0.000219406
0.000205833
0.000205833
0.000164448
0.000164448
0.000198698
0.000198698
0.000295151
0.000295151
0.000285145
0.000285145
0.000288047
0.000288047
0.000292107
0.000292107
0.000206077
0.000206077
0.000276157
0.000276157
0.000287464
0.000287464
0.000276388
0.000276388
0.000185681
0.000185681
0.000309144
0.000309144
0.000270943
0.000270943
0.000271981
0.000271981
0.000204601
0.000204601
0.000155233
0.000155233
0.000215475
0.000215475
0.000197089
0.000197089
0.000297177
0.000297177
0.000113694
0.000113694
0.000203334
0.000203334
0.000279252
0.000279252
0.000274251
0.000274251
0.000206389
0.000206389
0.00021624
0.00021624
0.000216326
0.000216326
0.000115714
0.000115714
0.00027608
0.00027608
0.000308279
0.000308279
0.000274908
0.000274908
0.000204847
0.000204847
0.000216067
0.000216067
0.000216212
0.000216212
0.00027347
0.00027347
0.000272974
0.000272974
0.0002135
0.0002135
0.000292239
0.000292239
0.000218468
0.000218468
0.000225365
0.000225365
0.000278161
0.000278161
0.000211101
0.000211101
0.00027652
0.00027652
0.000210096
0.000210096
0.000208482
0.000208482
0.000278591
0.000278591
0.000280812
0.000280812
0.000196886
0.000196886
0.000207435
0.000207435
0.00029897
0.00029897
0.000192362
0.000192362
0.00028116
0.00028116
0.000129526
0.000129526
3.46751e-05
3.46751e-05
0.000175771
0.000175771
0.000196642
0.000196642
0.000289382
0.000289382
0.000223214
0.000223214
0.000211077
0.000211077
0.000289058
0.000289058
0.000212695
0.000212695
4.18083e-05
4.18083e-05
0.000283317
0.000283317
0.000232021
0.000232021
2.08313e-05
2.08313e-05
0.00027742
0.00027742
0.000216611
0.000216611
0.000214091
0.000214091
0.000213229
0.000213229
0.000215291
0.000215291
0.000296666
0.000296666
0.000218087
0.000218087
0.000215205
0.000215205
0.000289226
0.000289226
1.22205e-05
1.22205e-05
1.22205e-05
9.86593e-06
9.86593e-06
9.86593e-06
0.000217202
0.000217202
0.000118648
0.000118648
0.000228718
0.000228718
0.000205908
0.000205908
0.000279615
0.000279615
0.000178467
0.000178467
0.000271448
0.000271448
1.81632e-05
1.81632e-05
1.81632e-05
0.000217045
0.000217045
0.000222725
0.000222725
0.000228845
0.000228845
0.000223799
0.000223799
3.50296e-05
3.50296e-05
0.00020666
0.00020666
0.000283088
0.000283088
3.01862e-05
3.01862e-05
0.000283348
0.000283348
0.000211615
0.000211615
0.000237909
0.000237909
3.48827e-05
3.48827e-05
0.000262992
0.000262992
0.000216565
0.000216565
0.000223794
0.000223794
2.69783e-05
2.69783e-05
0.000283998
0.000283998
0.000211859
0.000211859
0.000203302
0.000203302
0.000244268
0.000244268
0.000294955
0.000294955
0.00027559
0.00027559
0.000230731
0.000230731
0.000238006
0.000238006
0.000282865
0.000282865
4.84808e-05
4.84808e-05
0.000178742
0.000178742
0.000224286
0.000224286
0.000253308
0.000253308
0.000302082
0.000302082
0.000286412
0.000286412
0.000233301
0.000233301
9.04922e-05
9.04922e-05
0.000167721
0.000167721
0.000222363
0.000222363
0.000257714
0.000257714
0.000285448
0.000285448
0.000283541
0.000283541
0.000231344
0.000231344
0.00025769
0.00025769
0.000291468
0.000291468
0.000237789
0.000237789
0.000235432
0.000235432
1.84088e-05
1.84088e-05
1.84088e-05
0.000260891
0.000260891
0.000242183
0.000242183
0.000246285
0.000246285
0.00024626
0.00024626
3.3605e-05
3.3605e-05
0.00018357
0.00018357
0.00021603
0.00021603
0.000273561
0.000273561
0.000209054
0.000209054
0.000257075
0.000257075
0.000237303
0.000237303
0.0002079
0.0002079
0.000223205
0.000223205
1.72163e-05
1.72163e-05
1.72163e-05
3.54772e-05
3.54772e-05
0.000217059
0.000217059
0.000299046
0.000299046
0.000237769
0.000237769
0.000260825
0.000260825
0.000287235
0.000287235
0.000276628
0.000276628
0.000234549
0.000234549
0.000250298
0.000250298
0.000291564
0.000291564
0.0002335
0.0002335
0.000257903
0.000257903
0.000217292
0.000217292
0.000298451
0.000298451
0.000278294
0.000278294
0.000262298
0.000262298
0.000291266
0.000291266
0.000298232
0.000298232
0.000238256
0.000238256
0.000246694
0.000246694
3.05955e-05
3.05955e-05
0.000276239
0.000276239
0.00025119
0.00025119
4.38707e-05
4.38707e-05
0.000260946
0.000260946
2.32435e-05
2.32435e-05
2.32435e-05
0.000302876
0.000302876
0.000263648
0.000263648
0.000220444
0.000220444
1.87394e-05
1.87394e-05
1.87394e-05
0.000306004
0.000306004
0.000258137
0.000258137
0.000308376
0.000308376
0.000210227
0.000210227
4.04814e-05
4.04814e-05
0.000224146
0.000224146
0.000279524
0.000279524
0.000271141
0.000271141
0.000287555
0.000287555
0.000300479
0.000300479
0.000173653
0.000173653
3.16337e-05
3.16337e-05
0.000230311
0.000230311
0.00021868
0.00021868
0.000289866
0.000289866
0.000300052
0.000300052
0.000272421
0.000272421
0.000252685
0.000252685
0.000238188
0.000238188
0.000274628
0.000274628
0.000242221
0.000242221
0.000228393
0.000228393
0.00027692
0.00027692
0.000286012
0.000286012
0.000242877
0.000242877
0.000292701
0.000292701
0.000170029
0.000170029
0.000296239
0.000296239
0.000212871
0.000212871
3.02464e-05
3.02464e-05
0.000239339
0.000239339
0.000272056
0.000272056
0.000199889
0.000199889
0.00026059
0.00026059
0.000276363
0.000276363
0.000310509
0.000310509
0.000284013
0.000284013
0.000261821
0.000261821
0.000223863
0.000223863
0.000251901
0.000251901
3.03069e-05
3.03069e-05
1.38659e-05
1.38659e-05
1.38659e-05
0.000276066
0.000276066
0.00023139
0.00023139
0.000123892
0.000123892
0.000285884
0.000285884
0.000293866
0.000293866
3.33804e-05
3.33804e-05
0.00027961
0.00027961
0.000256653
0.000256653
0.000232971
0.000232971
0.000286955
0.000286955
0.000261568
0.000261568
0.000311764
0.000311764
0.000151329
0.000151329
0.000224949
0.000224949
0.000299326
0.000299326
0.000211321
0.000211321
0.000293786
0.000293786
0.000305425
0.000305425
2.06331e-05
2.06331e-05
2.06331e-05
0.000225244
0.000225244
0.000313439
0.000313439
0.000276978
0.000276978
0.000284169
0.000284169
0.000266682
0.000266682
0.000203145
0.000203145
0.000309636
0.000309636
0.000250086
0.000250086
0.000268666
0.000268666
0.000213014
0.000213014
0.000166285
0.000166285
0.000233135
0.000233135
0.000223858
0.000223858
0.000292676
0.000292676
0.000205225
0.000205225
0.000247074
0.000247074
0.000283607
0.000283607
0.000234888
0.000234888
0.000246256
0.000246256
0.000291762
0.000291762
0.000222731
0.000222731
0.000226076
0.000226076
0.000268498