/*--------------------------------*- C++ -*----------------------------------*\
  =========                 |
  \\      /  F ield         | OpenFOAM: The Open Source CFD Toolbox
   \\    /   O peration     | Website:  https://openfoam.org
    \\  /    A nd           | Version:  8
     \\/     M anipulation  |
\*---------------------------------------------------------------------------*/
FoamFile
{
    version     2.0;
    format      ascii;
    class       volScalarField;
    location    "0.95";
    object      p;
}
// * * * * * * * * * * * * * * * * * * * * * * * * * * * * * * * * * * * * * //

dimensions      [1 -1 -2 0 0 0 0];

internalField   nonuniform List<scalar> 
1924
(
0
-1.30648
-3.53991
-0.902627
-1.65583
-7.86566
-6.05734
-7.31182
-9.26313
-3.04298
-11.0972
-12.7983
-0.883502
-15.5384
-38.9933
-37.0757
-1.37572
-17.9164
4.17158
-21.1804
0.587185
-11.637
-2.43247
-23.0841
-11.7473
-16.3655
-18.1898
-4.58537
-1.75291
20.9119
-3.08105
-13.2059
-1.1183
-1.6582
-13.6282
-3.49361
-14.1667
-2.00279
22.2019
-2.36264
-15.6608
-0.223617
-15.3543
-1.19768
22.1051
-1.9106
-1.35281
9.53755
58.4672
1.53638
2.14144
-0.834118
-10.8537
9.74693
-1.84458
-11.2077
8.24681
19.3972
19.9429
-14.3501
-0.913339
-31.5597
-0.727292
26.1818
42.3434
4.55965
-19.1993
-4.52287
-1.81689
0.579506
0.0531765
-29.5156
25.5912
19.0551
18.0862
-3.37138
-1.75174
15.988
12.8265
-0.303054
-11.8561
-19.0343
20.3639
0.329438
0.107974
-4.74971
-20.1033
-35.9745
20.1045
0.180676
-19.8869
-17.7817
-2.08408
-3.41621
-0.364831
97.7199
-6.53215
-14.1191
-16.1501
-1.89269
-1.97956
-0.278856
-17.9029
-18.1438
-4.32673
8.23699
-1.39368
-5.93838
-11.3486
-2.47121
-1.69434
-1.52081
-1.52574
22.4383
11.5304
0.573046
-4.70027
-39.2166
-6.07576
6.65169
7.17028
576.899
1.5888
0.459236
-22.5083
-6.7349
-3.76764
14.1831
-2.01794
636.937
0.472289
-1.52652
-2.81018
21.5561
-0.49041
-3.9233
-1.46891
-1.3081
-27.014
-3.16739
-7.16059
-25.1958
3.31015
-1.47254
-4.97162
492.046
-6.96854
-1.52364
-8.64786
-6.23128
24.4948
674.571
-3.08054
-2.17252
-7.62542
-7.95597
576.512
-2.22
-3.42954
8.7941
21.267
-2.33091
-2.83064
583.769
26.5898
-5.46136
-8.28955
619.942
6.92858
-2.46544
-1.7231
-6.44136
7.64036
-15.3959
-26.2135
-9.2047
22.5085
0.696851
-2.38693
-4.26925
-10.5094
-45.2392
15.232
-9.40509
184.122
-1.85455
-5.05006
-11.9947
3.28146
18.1855
-8.3472
-7.74788
-3.72251
-4.69471
-9.3713
680.762
-14.0763
-9.36536
-9.54396
-9.34569
-0.390228
-1.17127
-4.88253
-9.27546
-1.76854
-11.211
-8.47097
-5.08969
-2.52622
-0.370929
589.558
-2.19536
-33.3464
-10.0713
-13.0414
11.1385
-7.19458
-8.85015
-9.94315
13.7193
-8.76433
16.7746
-6.63522
-34.8061
-11.8413
-15.4077
-7.0816
1.04497
-10.4178
-9.73355
-1.46514
-16.647
-10.0431
-0.0232504
-16.8022
26.4995
-36.592
-12.7568
-6.56468
687.063
-47.3857
-11.1694
-34.5626
-6.69368
13.3392
-1.71187
-14.1581
-14.5611
14.6415
3.59634
-6.60337
624.014
-11.6352
-3.14122
2.92824
-39.3736
-15.1499
-11.7305
-9.25876
-15.1869
-9.71264
-8.34449
-13.3121
11.2497
-12.6828
18.1334
-0.263991
8.52655
-2.0865
16.219
-9.2301
24.1259
-1.87219
-13.8078
-14.919
-14.0349
-16.4774
-18.0279
-3.22273
-10.0257
10.5006
724.65
-18.7835
-13.2085
27.8198
17.6411
-7.97887
634.365
-17.6001
-11.9435
-8.83421
21.1909
-19.2794
-41.4499
0.957326
30.1593
-40.4412
-5.61494
10.3729
-42.9175
709.204
-4.3869
-37.4211
-6.43084
-19.5529
-16.0662
-0.422737
-34.8181
-12.5278
18.6285
-2.97647
-6.26927
-15.3054
-9.95445
-1.29566
-0.46951
-10.3006
-20.3437
-9.83876
-10.6586
19.2104
-10.0628
-5.13179
29.3679
-17.9368
-5.72411
-12.9832
-14.652
-11.4975
-11.9902
-10.5964
-16.3727
-9.2862
-22.0716
14.556
-20.1025
-13.9828
-10.86
-16.61
-7.74703
-2.31005
23.2998
-10.6127
-6.27263
-44.7181
-30.6847
-1.77269
-22.8786
-9.62328
-16.8595
-13.6724
18.6206
33.2662
-44.5285
-1.89807
3.3722
399.321
-23.3083
-11.906
215.706
-20.6964
-47.5599
-42.514
-15.1787
-12.9896
-8.40258
-10.0106
-9.1295
-19.0417
-12.6971
-37.1071
-11.7143
-13.7432
-51.6128
-15.2842
0.724423
-48.2115
-44.0437
-11.0588
-25.3654
-28.0172
5.89222
-14.0935
-12.5739
-10.5595
-32.7478
16.1078
-15.5562
-14.7155
-11.4271
33.5249
-8.70112
-15.3522
-17.541
-14.1168
-3.83572
-13.3585
-10.6205
-14.0179
-36.4367
427.581
10.0189
-4.86668
-3.21981
711.764
-11.2643
-24.1751
-19.2359
-12.4971
-12.824
-20.2385
-7.64563
-26.0088
-13.2051
-20.678
-5.60478
-13.0961
-50.7104
-5.39347
-11.0031
-49.2841
-10.0103
-20.5819
-3.48968
-11.6099
-44.9803
-2.07787
22.6943
-9.56354
-12.3961
-12.1271
-9.74983
-11.6449
-6.87308
-18.7407
-12.7866
-42.4353
-0.326144
-15.3866
-10.8994
-10.9888
-12.6996
-13.7171
30.9537
-22.6317
-6.74728
-19.5222
12.0764
-16.5451
-12.8845
-47.2529
-9.02095
-15.0803
-18.2456
-12.2212
-17.8246
-34.826
-51.9128
-6.86892
-30.0168
-2.71602
-9.88365
-0.797758
-6.89782
-6.14521
-14.0894
-16.4968
-21.7333
-18.3581
14.9985
-11.6197
-7.56185
18.3377
-30.3058
-8.5955
0.179577
27.0633
-27.4529
-24.5298
-39.1446
-18.2407
-20.8655
-8.66229
-18.0207
-9.34307
-11.0734
-10.496
-52.3182
-9.62669
-5.99007
-0.235637
-9.85301
-7.20429
-7.06878
-51.8164
-21.8079
-27.2181
-9.89067
-10.5572
29.0546
-49.6892
-51.3374
-10.653
-10.0994
-2.46992
-5.93023
-54.5917
-10.79
-8.36905
-44.151
5.15792
-17.5075
-10.3858
-16.3209
-12.3772
-13.6547
-9.65052
-18.758
-20.4331
-35.8405
-7.00866
-55.0655
-10.2068
-40.8026
-17.6497
-19.9847
14.7806
-0.932839
-10.5896
-22.3056
-6.91672
-29.9636
-7.85851
-4.22283
-4.81507
-15.9303
-22.0154
-9.44382
-1.1812
-9.96248
-8.77466
28.1512
1.38671
7.15046
-32.0594
-8.26444
21.8562
29.1411
-21.4643
-20.2717
-8.67562
-7.49091
-44.4171
-7.36612
-9.05567
-4.97127
-1.20123
7.31782
34.4942
25.9519
-9.63746
-7.01347
-4.53315
-8.14664
-11.0672
-5.19506
-6.73315
-7.19104
19.463
-8.3725
-27.4901
-7.6724
-9.26863
-9.48329
11.0846
-12.4254
-2.59443
-3.69847
-51.321
-5.6241
-8.92535
-29.1143
-23.1367
-10.3126
57.2469
1.18904
-55.6311
-6.61248
-18.5849
24.8287
-9.44221
-7.1769
32.7407
16.8835
5.75584
-48.6137
-13.4411
1.20598
-17.3069
-7.59445
251.916
-56.9042
-21.8633
31.0504
-7.68651
-32.2435
-20.2482
-0.353348
-5.40888
-5.91262
-9.24387
-53.9351
-3.24733
-7.27716
-8.55384
-23.0482
-19.2768
-5.32157
163.471
29.3912
-41.8493
-14.7154
-7.38141
-8.80652
-23.9164
15.9152
-0.336172
-25.9982
-20.2086
-4.60302
-37.6458
-7.42622
-0.197773
-8.30897
-7.48218
245.656
-7.84762
39.0814
-7.16896
-38.2013
-6.43461
-7.21891
-8.02663
-8.16
-6.18293
-57.5174
-8.63513
-54.9903
-6.4306
-10.5789
-7.17818
-7.97729
-6.14627
-20.7547
-1.03003
-9.48481
-7.6398
2.03424
-8.34514
-5.24116
-5.6122
2.33418
12.2543
-28.5081
-10.4194
30.535
-8.47811
-34.176
-7.21913
-7.77203
-8.12477
-7.2512
-0.518239
-11.526
-56.7683
-23.8958
-24.161
-45.6258
7.62825
-2.79278
-54.5991
-56.7321
-19.8904
-15.2116
-8.46302
-22.8984
-12.0759
80.8234
-48.9852
3.04835
24.2527
-23.0757
-8.94762
-7.12898
-7.17118
-58.9815
-3.55638
6.3209
-7.88655
-8.19142
-15.4187
-9.15118
-6.70375
-3.13366
52.0823
-6.37661
-6.07456
-7.37729
-45.8598
-7.43317
-7.17774
5.91832
-6.35431
182.866
-7.77328
-19.5542
-7.44002
-7.86932
-59.1767
84.0227
8.03791
-26.8902
-4.26837
1.96776
-42.2067
1.41405
0.783276
253.726
-4.72908
-38.4845
-8.11764
-5.3397
30.8911
-8.00259
-16.1537
-7.94001
-12.7451
-5.93221
-20.9893
-8.1089
21.5643
-9.47701
-11.8873
401.474
-11.0451
38.4285
-7.63588
0.632014
-7.29514
-34.456
-8.05993
-7.1859
-26.534
34.7909
32.006
-21.6239
23.1872
175.747
452.308
-23.8131
17.7372
-10.1996
-54.1836
-24.2555
-8.02676
-4.1655
-7.16008
-7.68457
5.76385
-6.53782
-34.8369
-6.70686
40.7092
-6.66763
-3.87678
-54.3321
-7.46552
-7.34502
6.01723
-5.97605
-5.62348
0.954414
-25.7032
-5.96558
-28.4539
13.7154
-49.2571
-6.10008
-59.4316
25.237
-5.01156
-7.08936
-58.2436
-6.90038
-7.78711
-19.9198
-51.3106
58.9046
-5.88577
-7.03404
-0.716983
-5.34798
-7.73998
28.8439
-5.24556
-57.2401
34.6291
-31.2808
-7.86126
-7.54434
12.3715
-45.2485
29.5958
371.046
-7.03926
-2.48773
-18.8995
8.41221
-7.87616
-6.25512
-7.71088
-20.9187
-59.4089
10.558
-11.2558
-41.9406
-7.661
-14.1579
-8.25481
-3.63575
-42.4899
-12.4145
-7.22594
-6.81176
-7.84908
-7.04452
2.83542
-16.39
-33.6618
320.228
-13.5214
365.436
-6.49976
-7.39255
509.985
-7.37376
-6.2867
-7.78938
-24.4118
-6.976
-27.9197
-9.20551
11.8092
-3.02857
-38.6912
-6.72458
-5.44785
-7.44216
59.2242
6.48793
-14.7564
-58.425
-6.73407
18.7151
-6.31507
-7.2498
28.673
-7.59609
6.2587
-7.41588
-28.5713
-7.11497
46.3776
-24.0808
-7.44465
21.9323
-9.71718
-1.89564
48.7544
-6.16983
33.9824
-7.11158
-21.5676
13.9085
-8.05162
-7.78585
-7.31326
-17.261
-9.49796
-11.6559
-7.60599
-19.8131
91.2308
-54.9546
-57.1159
-54.9372
-49.7478
-30.9917
-5.78195
-49.2611
1.88677
14.6316
-7.22306
280.277
-7.33419
-7.85941
-59.0065
22.7733
-6.82966
-58.9937
-7.05925
26.4769
-46.4665
2.39649
207.323
-7.93183
24.8238
-7.50038
-7.32328
1.51059
8.1448
-45.894
-7.79242
295.011
-41.0402
-9.62073
-16.2192
-19.5318
-30.1085
-6.78318
-7.50346
-27.4915
-7.70049
-6.5349
-7.47228
-3.82985
-16.5869
-6.85799
-6.77816
-8.16687
-4.31935
16.8586
-37.2207
17.6482
388.856
-7.08318
-7.71481
-7.28206
17.7577
-38.0923
-2.28045
-7.86284
37.6701
-6.98854
-12.4876
34.6817
16.56
0.93602
18.3595
-21.4069
55.263
-29.0476
-7.21377
-30.9162
75.2329
-7.39028
-56.9611
-7.94917
-7.56945
52.0711
-11.1529
-7.27581
3.38095
-7.69509
-51.4019
33.1455
-9.45173
-7.69051
-9.95568
-6.49554
-34.0732
-7.62623
-1.49462
-7.42614
-7.81362
-8.4343
-7.94677
43.258
40.1818
-6.74763
-10.2423
-7.20995
-23.9622
-7.59867
-6.98082
-1.79512
-6.52942
-12.7541
-14.5115
12.8524
-7.91513
45.2486
-3.77762
-18.6796
-7.18756
-4.1474
-44.8062
-19.9066
-52.3058
49.0669
-7.83464
54.1509
-26.727
-8.10538
-49.4965
-44.5532
-8.16212
-7.9092
-7.10759
-8.07209
-56.9457
-52.2304
-55.9788
192.692
-8.59399
-17.584
-7.72093
-7.22476
-7.56747
17.5823
24.9893
49.1067
1.77375
-42.0389
-10.0943
315.075
238.615
-7.52058
-23.3737
31.7986
-8.15863
41.7927
-40.9234
-36.3905
-8.45706
-23.4545
-8.11816
-36.087
-8.56573
-8.39427
-7.46264
-7.72404
-56.7631
100.534
-8.11233
-6.42837
-25.731
-8.10326
-55.8189
-7.41735
-6.86058
-8.84246
22.3897
-7.12872
39.071
79.1445
-14.0262
-49.8247
-8.21902
-31.6189
154.845
-32.5487
161.836
-8.02133
-7.56025
-9.04886
-7.11065
411.102
-17.8353
-6.91526
-8.36463
18.0172
-8.93127
-6.65916
131.85
205.71
-6.53128
-26.6539
-9.23055
-28.8247
-10.6
-7.52193
-14.0343
12.4293
22.3743
-8.3064
-8.13474
-46.6447
-4.31604
-7.09069
217.632
-6.98247
-7.8575
-1.03351
17.0566
-8.89068
277.233
1.80398
-9.39729
-10.4286
-8.58948
249.713
-8.4652
436.931
422.456
-27.2919
141.872
-8.22936
-52.3192
-7.60511
-8.3528
-9.66344
135.887
-22.2271
-50.5319
-46.5124
-8.1296
-7.67418
-7.1197
0.387789
-25.7026
-15.2741
-7.30245
-38.8543
-6.73083
-6.74827
-8.39029
-44.3954
-39.3809
354.973
-7.28551
-19.1523
462.875
378.513
37.4695
-8.16735
-0.0652376
-8.59574
-7.7976
28.1418
321.774
-7.23277
-36.6803
-34.714
-11.9762
-49.9829
-53.9653
196.786
-6.58742
31.3642
-10.4975
-10.371
428.525
-5.67544
-8.56577
104.34
337.558
-9.80288
-25.3846
-8.05982
-53.9399
-5.49846
0.9164
362.588
-31.8976
-10.3777
-7.97637
52.9473
16.2838
-8.42172
-7.18003
12.2619
-27.2271
-3.37596
-11.4261
-7.17657
454.106
-8.35241
-9.4819
-8.66236
-11.7933
-7.54832
-9.28145
49.5745
36.9758
-14.0965
536.301
-8.48865
-6.86985
199.676
-6.4375
-43.7138
-6.54141
-7.11331
-6.44542
-7.5094
-8.6502
359.823
-19.4152
-11.162
-7.42729
-50.5356
373.022
-23.8658
-8.54798
77.1869
-17.6749
-8.16284
-46.2227
13.7105
1.87148
-10.1825
-8.76733
-7.97835
88.1429
-39.8211
362.062
133.107
316.305
-16.2935
-44.2182
-8.83521
-10.5613
-48.7637
-11.8751
-9.27872
-15.1021
-6.05511
-6.12328
-6.7258
-52.1735
-8.33866
-6.78454
496.511
522.414
-31.8733
-8.1871
-10.4236
-6.71478
42.9557
-11.6254
-5.86135
-7.99164
-6.3341
-6.04543
43.2035
-40.5654
65.5747
660.555
-9.23597
-6.83524
-8.06284
428.871
111.221
-8.57705
403.067
3.24568
-6.45056
-6.25726
-49.3752
-8.99732
-37.7086
512.768
43.7677
-35.4577
-8.51941
-28.3078
-8.66279
-2.37687
518.729
96.1121
-5.71341
-8.24782
513.534
-6.59904
-23.9424
-9.58318
-21.8578
-6.91679
-8.63518
-6.02223
-7.27281
-5.75787
475.764
-5.97149
332.478
-10.5607
-18.8643
-11.5191
-8.23914
20.1232
-10.0469
-8.95431
542.375
-46.3819
-5.0212
-33.4997
-5.45313
14.3636
-5.34039
-13.5959
5.17644
17.9236
16.5894
-8.75062
-41.7619
14.05
231.904
-5.63879
-6.25138
278.306
-8.80356
-4.75278
-4.53927
-7.1165
-11.9671
25.3818
-6.79667
-43.1897
18.1662
-5.87047
-43.4012
-1.24889
-11.5385
-10.9316
348.86
-39.1239
417.049
-35.832
-6.05155
3.36623
337.581
-3.00934
-3.95095
457.171
-8.94217
-4.31674
55.7897
-5.58298
-8.4715
-11.3373
-49.3159
202.246
-2.37596
-3.23452
-16.8179
-7.26287
252.439
153.768
601.674
352.725
-2.81796
614.438
-8.16622
-25.5998
-8.97172
-4.90303
-22.7485
-8.39184
46.7801
-11.2949
35.0841
32.4981
-32.1406
-14.3364
458.03
-8.90994
-9.31275
153.645
-8.12908
-4.54892
391.324
-4.67922
-5.65416
646.521
267.176
71.8679
-7.32514
-45.8304
669.002
-4.48128
-8.43268
51.7492
-5.7436
-3.55365
-3.69413
-37.6695
306.279
-12.1709
-7.91944
104.909
-2.94813
-3.62259
725.263
-12.6662
-4.88921
-10.5597
567.633
-5.52575
-10.0036
-5.98852
-8.60314
-10.1558
-6.07494
-7.9844
-11.0236
-2.01372
-7.94213
68.7876
-5.23086
-35.8751
-11.7259
533.078
-9.06671
520.729
528.29
-5.65794
-48.5652
-44.3049
-10.9307
-8.62085
-4.86993
345.11
-4.03803
-6.06502
-23.9717
-34.799
-20.2168
552.033
-2.28378
-36.3012
-3.51624
-13.1424
-17.4258
-9.1485
-7.24752
-10.6921
-8.48025
2.38065
-5.30479
-43.8794
-45.7635
-4.89895
-37.1546
-25.5017
-6.53798
-8.43082
-9.41167
-8.09316
55.2315
-10.9593
-7.69463
-6.47086
-8.73294
45.4381
-10.126
-37.0462
-9.02637
-38.0399
-11.3682
-11.1613
295.458
-28.0786
428.319
-34.7062
502.221
-5.52513
740.785
-1.88253
-2.26585
-5.09447
-7.61815
651.948
-10.0903
-4.56328
497.92
719.292
652.566
1.60157
-11.5998
-37.3554
-43.9461
220.529
-28.8462
-29.7316
231.687
-5.91957
702.152
-11.7733
-9.52599
-4.34627
-10.6196
-7.67957
677.401
-32.3058
-5.79933
-12.4195
-9.06306
-28.9894
-8.65406
273.705
-4.52773
-15.685
66.0018
-3.42532
-13.0308
-10.2452
-12.3567
-22.0494
-16.2684
-5.4542
-3.05989
-0.735439
-10.8346
-21.6203
366.057
-6.25643
-10.4826
-8.47291
-8.03648
-11.5961
-20.0121
-8.15985
-9.64558
-13.8686
14.9535
253.937
147.834
-7.91487
-7.91048
-4.35204
-13.028
-7.13506
-9.24966
630.826
-3.72757
-8.75562
-12.6266
-5.51653
497.574
578.885
185.806
-7.83754
-9.67561
-9.14951
751.626
-22.9075
-9.95265
-11.9066
-18.9648
-8.52798
-8.97588
0.825059
-4.74235
-14.4292
37.6339
-26.3918
-6.92946
-10.4412
-7.49773
727.546
-2.39778
-1.9754
-3.92889
519.98
-29.0693
-28.7621
-12.1029
-12.9423
-41.4936
-11.5225
-8.46188
-37.4643
-9.08423
101.838
-33.7278
-9.93804
-7.77062
727.778
-28.8327
-8.9469
-34.8762
125.3
52.1838
206.265
-19.9324
-8.81291
-10.8401
-13.1478
-2.78415
-13.8985
707.785
793.701
-37.9504
-11.1779
-27.1908
-21.6356
-8.5649
-28.3002
-12.3185
-11.3095
-8.34292
-58.6552
-38.5356
-30.7906
289.292
-3.36576
-16.9182
-9.75494
-36.374
-6.94541
-20.2713
-9.35556
-17.2013
481.988
-31.9787
-5.57948
413.365
-9.49519
-7.77879
830.084
-22.7522
-12.5003
-13.0025
-2.06047
-8.8654
-3.47529
-3.78785
-25.2715
-36.2647
-4.13739
-1.90191
-8.50959
-6.01669
-42.4876
-11.1944
90.4337
-10.2251
-16.2045
-10.4208
-28.1557
-8.4835
-26.1514
672.967
558.527
-21.5961
410.294
-3.30801
-16.1049
-7.55465
-18.8933
-11.4345
-12.9788
-10.4565
-9.22815
-18.8095
-8.72846
-18.5842
-9.42301
2.61526
615.945
690.206
-10.3888
-26.8281
1.9631
733.861
-7.96173
-13.7244
-3.95925
-13.7862
-16.1396
-13.1363
-15.5789
-7.18369
-7.66674
-10.5167
-9.96568
-9.38357
-8.61697
-20.2487
-7.26179
-6.42121
12.2151
-10.4852
-12.0247
-9.971
686.954
-9.92094
-7.75212
-8.60357
412.56
271.934
-18.2041
-9.94702
-0.444215
-14.2638
-12.2609
-13.8652
-8.6599
-3.4728
-1.37155
-8.89502
7.69975
-8.78012
-11.4462
6.99803
-8.85233
-22.8115
-6.15642
-13.9869
12.4781
-11.5961
-2.00081
-2.64176
-1.8175
-25.3276
-7.89686
21.548
-9.25855
-15.9833
-13.4706
-10.9203
-9.12395
-2.51965
-8.34391
-6.8431
-12.2998
864.672
-6.68341
-12.838
-9.50018
-2.43532
11.3051
19.8669
-11.7751
-13.0904
-10.1007
-0.748517
18.6142
-4.4375
-12.3638
7.02132
-0.563459
2.57784
-8.07272
23.023
-10.6825
-9.67827
-8.60109
3.7786
5.3701
-8.15112
-13.2188
2.27114
-8.82877
15.6799
14.0348
-8.82935
-23.8576
7.47645
7.37079
5.34323
8.64433
6.60158
476.627
611.293
9.65277
675.219
9.40352
679.029
-9.06515
-8.10644
-0.966574
-7.27943
-7.04381
-6.46158
-8.84072
-9.57785
-7.29009
-5.70127
1.15387
3.18626
-14.4229
5.97555
4.43496
-2.44094
-5.42368
7.13246
-14.9975
-14.4708
-11.2028
-10.5793
-10.0045
-9.03468
-7.93025
7.5334
13.1465
3.75892
-7.89778
-1.27443
823.24
879.794
166.515
25.2287
128.446
887.966
724.893
-6.89173
165.275
674.805
834.292
383.634
9.73787
176.001
78.439
840.401
166.799
-6.96845
334.598
80.5953
-9.25066
313.376
0.0481276
-8.6396
170.494
384.621
317.332
391.715
372.233
387.375
364.027
384.538
379.685
22.5482
125.467
272.632
496.038
503.829
503.857
265.179
-7.51575
-6.69306
485.206
113.73
95.8861
320.837
261.246
413.031
32.4731
9.12088
170.001
553.29
496.184
479.723
479.448
426.259
488.221
440.411
417.338
433.443
655.787
549.078
26.3797
-8.07444
280.848
6.13663
349.272
450.712
49.4422
347.282
2.65629
437.967
-6.82945
337.557
1.70577
0.833106
446.266
0.566071
269.016
46.0555
427.619
-23.1619
19.3246
-7.46528
410.867
245.766
-28.3741
309.917
108.666
430.061
0.407711
-6.5011
-29.5715
213.242
64.8039
708.28
-7.06277
-18.8707
26.6872
-26.8053
-6.1098
169.436
-6.45084
-25.6676
55.6881
-6.21085
54.5554
108.952
173.988
218.35
-5.96417
657.943
709.883
-26.632
)
;

boundaryField
{
    patch0
    {
        type            calculated;
        value           nonuniform List<scalar> 
4010
(
3.55271e-15
3.55271e-15
-1.30648
-1.30648
-3.53991
-3.53991
-0.902627
-0.902627
-1.65583
-1.65583
-7.86566
-7.86566
-6.05734
-6.05734
-7.31182
-7.31182
-9.26313
-9.26313
-3.04298
-3.04298
-11.0972
-11.0972
-12.7983
-12.7983
-0.883502
-0.883502
-15.5384
-15.5384
-38.9933
-38.9933
-37.0757
-37.0757
-1.37572
-1.37572
-17.9164
-17.9164
4.17158
4.17158
-21.1804
-21.1804
0.587185
0.587185
-11.637
-11.637
-2.43247
-2.43247
-23.0841
-23.0841
-11.7473
-11.7473
-16.3655
-16.3655
-18.1898
-18.1898
-4.58537
-4.58537
-1.75291
-1.75291
20.9119
20.9119
-3.08105
-3.08105
-13.2059
-13.2059
-1.1183
-1.1183
-1.6582
-1.6582
-13.6282
-13.6282
-3.49361
-3.49361
-14.1667
-14.1667
-2.00279
-2.00279
22.2019
22.2019
-2.36264
-2.36264
-15.6608
-15.6608
-0.223617
-0.223617
-15.3543
-15.3543
-1.19768
-1.19768
22.1051
22.1051
-1.9106
-1.9106
-1.35281
-1.35281
9.53755
9.53755
58.4672
58.4672
1.53638
1.53638
2.14144
2.14144
-0.834118
-0.834118
-10.8537
-10.8537
9.74693
9.74693
-1.84458
-1.84458
-11.2077
-11.2077
8.24681
8.24681
19.3972
19.3972
19.9429
19.9429
-14.3501
-14.3501
-0.913339
-0.913339
-31.5597
-31.5597
-0.727292
-0.727292
26.1818
26.1818
42.3434
42.3434
4.55965
4.55965
-19.1993
-19.1993
-4.52287
-4.52287
-1.81689
-1.81689
0.579506
0.579506
0.0531765
0.0531765
-29.5156
-29.5156
25.5912
25.5912
19.0551
19.0551
18.0862
18.0862
-3.37138
-3.37138
-1.75174
-1.75174
15.988
15.988
12.8265
12.8265
-0.303054
-0.303054
-11.8561
-11.8561
-19.0343
-19.0343
20.3639
20.3639
0.329438
0.329438
0.107974
0.107974
-4.74971
-4.74971
-20.1033
-20.1033
-35.9745
-35.9745
20.1045
20.1045
0.180676
0.180676
-19.8869
-19.8869
-17.7817
-17.7817
-2.08408
-2.08408
-3.41621
-3.41621
-0.364831
-0.364831
97.7199
97.7199
-6.53215
-6.53215
-14.1191
-14.1191
-16.1501
-16.1501
-1.89269
-1.89269
-1.97956
-1.97956
-0.278856
-0.278856
-17.9029
-17.9029
-18.1438
-18.1438
-4.32673
-4.32673
8.23699
8.23699
-1.39368
-1.39368
-5.93838
-5.93838
-11.3486
-11.3486
-2.47121
-2.47121
-1.69434
-1.69434
-1.52081
-1.52081
-1.52574
-1.52574
22.4383
22.4383
11.5304
11.5304
0.573046
0.573046
-4.70027
-4.70027
-39.2166
-39.2166
-6.07576
-6.07576
6.65169
6.65169
7.17028
7.17028
576.899
576.899
1.5888
1.5888
0.459236
0.459236
-22.5083
-22.5083
-6.7349
-6.7349
-3.76764
-3.76764
14.1831
14.1831
-2.01794
-2.01794
636.937
636.937
0.472289
0.472289
-1.52652
-1.52652
-2.81018
-2.81018
21.5561
21.5561
-0.49041
-0.49041
-3.9233
-3.9233
-1.46891
-1.46891
-1.3081
-1.3081
-27.014
-27.014
-3.16739
-3.16739
-7.16059
-7.16059
-25.1958
-25.1958
3.31015
3.31015
11.0695
-1.47254
-1.47254
-1.42921
-4.97162
-4.97162
492.046
492.046
-6.96854
-6.96854
-1.52364
-1.52364
-8.64786
-8.64786
-6.23128
-6.23128
24.4948
24.4948
674.571
674.571
768.311
-3.08054
-3.08054
-2.17252
-2.17252
-7.62542
-7.62542
-7.95597
-7.95597
576.512
576.512
-2.22
-2.22
-3.42954
-3.42954
8.7941
8.7941
21.267
21.267
-2.33091
-2.33091
-2.83064
-2.83064
583.769
583.769
26.5898
26.5898
-5.46136
-5.46136
-8.28955
-8.28955
619.942
619.942
6.92858
6.92858
-2.46544
-2.46544
-1.7231
-1.7231
-6.44136
-6.44136
7.64036
7.64036
-15.3959
-15.3959
-26.2135
-26.2135
-9.2047
-9.2047
22.5085
22.5085
0.696851
0.696851
-2.38693
-2.38693
-4.26925
-4.26925
-10.5094
-10.5094
-45.2392
-45.2392
15.232
15.232
-9.40509
-9.40509
184.122
184.122
-1.85455
-1.85455
-5.05006
-5.05006
-11.9947
-11.9947
3.28146
3.28146
18.1855
18.1855
-8.3472
-8.3472
-7.74788
-7.74788
-3.72251
-3.72251
-4.69471
-4.69471
-9.3713
-9.3713
680.762
680.762
774.502
-14.0763
-14.0763
-9.36536
-9.36536
-9.54396
-9.54396
-9.34569
-9.34569
-0.390228
-0.390228
-1.17127
-1.17127
-4.88253
-4.88253
-9.27546
-9.27546
-1.76854
-1.76854
-11.211
-11.211
-8.47097
-8.47097
-5.08969
-5.08969
-2.52622
-2.52622
-0.370929
-0.370929
-0.311963
589.558
589.558
-2.19536
-2.19536
-33.3464
-33.3464
-10.0713
-10.0713
-13.0414
-13.0414
11.1385
11.1385
-7.19458
-7.19458
-8.85015
-8.85015
-9.94315
-9.94315
13.7193
13.7193
-8.76433
-8.76433
16.7746
16.7746
-6.63522
-6.63522
-34.8061
-34.8061
-11.8413
-11.8413
-15.4077
-15.4077
-7.0816
-7.0816
1.04497
1.04497
-10.4178
-10.4178
-9.73355
-9.73355
-1.46514
-1.46514
-16.647
-16.647
-10.0431
-10.0431
-0.0232504
-0.0232504
-16.8022
-16.8022
26.4995
26.4995
26.7747
-36.592
-36.592
-12.7568
-12.7568
-6.56468
-6.56468
687.063
687.063
780.804
-47.3857
-47.3857
-11.1694
-11.1694
-34.5626
-34.5626
-6.69368
-6.69368
13.3392
13.3392
-1.71187
-1.71187
-14.1581
-14.1581
-14.5611
-14.5611
14.6415
14.6415
3.59634
3.59634
-6.60337
-6.60337
624.014
624.014
-11.6352
-11.6352
-3.14122
-3.14122
2.92824
2.92824
-39.3736
-39.3736
-15.1499
-15.1499
-11.7305
-11.7305
-9.25876
-9.25876
-15.1869
-15.1869
-9.71264
-9.71264
-8.34449
-8.34449
-13.3121
-13.3121
11.2497
11.2497
-12.6828
-12.6828
18.1334
18.1334
-0.263991
-0.263991
8.52655
8.52655
-2.0865
-2.0865
16.219
16.219
-9.2301
-9.2301
24.1259
24.1259
-1.87219
-1.87219
-13.8078
-13.8078
-14.919
-14.919
-14.0349
-14.0349
-16.4774
-16.4774
-18.0279
-18.0279
-3.22273
-3.22273
-10.0257
-10.0257
10.5006
10.5006
724.65
724.65
791.438
-18.7835
-18.7835
-13.2085
-13.2085
27.8198
27.8198
17.6411
17.6411
-7.97887
-7.97887
634.365
634.365
-17.6001
-17.6001
-11.9435
-11.9435
-8.83421
-8.83421
21.1909
21.1909
-19.2794
-19.2794
-41.4499
-41.4499
0.957326
0.957326
30.1593
30.1593
-40.4412
-40.4412
-5.61494
-5.61494
10.3729
10.3729
-42.9175
-42.9175
709.204
709.204
798.984
-4.3869
-4.3869
-37.4211
-37.4211
-6.43084
-6.43084
-19.5529
-19.5529
-16.0662
-16.0662
-0.422737
-0.422737
-34.8181
-34.8181
-12.5278
-12.5278
18.6285
18.6285
-2.97647
-2.97647
-6.26927
-6.26927
-15.3054
-15.3054
-9.95445
-9.95445
-1.29566
-1.29566
-0.46951
-0.46951
-10.3006
-10.3006
-20.3437
-20.3437
-9.83876
-9.83876
-10.6586
-10.6586
19.2104
19.2104
-10.0628
-10.0628
-5.13179
-5.13179
29.3679
29.3679
-17.9368
-17.9368
-5.72411
-5.72411
-12.9832
-12.9832
-14.652
-14.652
-11.4975
-11.4975
-11.9902
-11.9902
-10.5964
-10.5964
-16.3727
-16.3727
-9.2862
-9.2862
-22.0716
-22.0716
14.556
14.556
-20.1025
-20.1025
-13.9828
-13.9828
-10.86
-10.86
-16.61
-16.61
-7.74703
-7.74703
-2.31005
-2.31005
23.2998
23.2998
-10.6127
-10.6127
-6.27263
-6.27263
-44.7181
-44.7181
-30.6847
-30.6847
-1.77269
-1.77269
-22.8786
-22.8786
-9.62328
-9.62328
-16.8595
-16.8595
-13.6724
-13.6724
18.6206
18.6206
33.2662
33.2662
-44.5285
-44.5285
-1.89807
-1.89807
3.3722
3.3722
399.321
399.321
-23.3083
-23.3083
-11.906
-11.906
215.706
215.706
-20.6964
-20.6964
-47.5599
-47.5599
-42.514
-42.514
-15.1787
-15.1787
-12.9896
-12.9896
-8.40258
-8.40258
-10.0106
-10.0106
-9.1295
-9.1295
-19.0417
-19.0417
-12.6971
-12.6971
-37.1071
-37.1071
-11.7143
-11.7143
-13.7432
-13.7432
-51.6128
-51.6128
-15.2842
-15.2842
0.724423
0.724423
-48.2115
-48.2115
-44.0437
-44.0437
-11.0588
-11.0588
-25.3654
-25.3654
-28.0172
-28.0172
5.89222
5.89222
-14.0935
-14.0935
-12.5739
-12.5739
-10.5595
-10.5595
-32.7478
-32.7478
16.1078
16.1078
-15.5562
-15.5562
-14.7155
-14.7155
-11.4271
-11.4271
33.5249
33.5249
-8.70112
-8.70112
-15.3522
-15.3522
-17.541
-17.541
-14.1168
-14.1168
-3.83572
-3.83572
-3.79502
-13.3585
-13.3585
-10.6205
-10.6205
-14.0179
-14.0179
-36.4367
-36.4367
427.581
427.581
10.0189
10.0189
-4.86668
-4.86668
-3.21981
-3.21981
711.764
711.764
760.134
-11.2643
-11.2643
-24.1751
-24.1751
-19.2359
-19.2359
-12.4971
-12.4971
-12.824
-12.824
-20.2385
-20.2385
-7.64563
-7.64563
-26.0088
-26.0088
-13.2051
-13.2051
-20.678
-20.678
-5.60478
-5.60478
-13.0961
-13.0961
-50.7104
-50.7104
-5.39347
-5.39347
-11.0031
-11.0031
-49.2841
-49.2841
-10.0103
-10.0103
-20.5819
-20.5819
-3.48968
-3.48968
-11.6099
-11.6099
-44.9803
-44.9803
-2.07787
-2.07787
22.6943
22.6943
-9.56354
-9.56354
-12.3961
-12.3961
-12.1271
-12.1271
-9.74983
-9.74983
-11.6449
-11.6449
-6.87308
-6.87308
-18.7407
-18.7407
-12.7866
-12.7866
-42.4353
-42.4353
-0.326144
-0.326144
-15.3866
-15.3866
-10.8994
-10.8994
-10.9888
-10.9888
-12.6996
-12.6996
-13.7171
-13.7171
30.9537
30.9537
-22.6317
-22.6317
-6.74728
-6.74728
-6.574
-19.5222
-19.5222
12.0764
12.0764
-16.5451
-16.5451
-12.8845
-12.8845
-47.2529
-47.2529
-9.02095
-9.02095
-15.0803
-15.0803
-18.2456
-18.2456
-12.2212
-12.2212
-17.8246
-17.8246
-34.826
-34.826
-51.9128
-51.9128
-6.86892
-6.86892
-30.0168
-30.0168
-2.71602
-2.71602
-9.88365
-9.88365
-0.797758
-0.797758
-6.89782
-6.89782
-6.14521
-6.14521
-14.0894
-14.0894
-16.4968
-16.4968
-21.7333
-21.7333
-18.3581
-18.3581
14.9985
14.9985
-11.6197
-11.6197
-7.56185
-7.56185
18.3377
18.3377
-30.3058
-30.3058
-8.5955
-8.5955
0.179577
0.179577
27.0633
27.0633
-27.4529
-27.4529
-24.5298
-24.5298
-39.1446
-39.1446
-18.2407
-18.2407
-20.8655
-20.8655
-8.66229
-8.66229
-18.0207
-18.0207
-9.34307
-9.34307
-11.0734
-11.0734
-10.496
-10.496
-52.3182
-52.3182
-9.62669
-9.62669
-5.99007
-5.99007
-0.235637
-0.235637
-9.85301
-9.85301
-7.20429
-7.20429
-7.06878
-7.06878
-51.8164
-51.8164
-21.8079
-21.8079
-27.2181
-27.2181
-9.89067
-9.89067
-10.5572
-10.5572
29.0546
29.0546
-49.6892
-49.6892
-51.3374
-51.3374
-10.653
-10.653
-10.0994
-10.0994
-2.46992
-2.46992
-5.93023
-5.93023
-54.5917
-54.5917
-10.79
-10.79
-8.36905
-8.36905
-44.151
-44.151
5.15792
5.15792
-17.5075
-17.5075
-10.3858
-10.3858
-16.3209
-16.3209
-12.3772
-12.3772
-13.6547
-13.6547
-9.65052
-9.65052
-18.758
-18.758
-20.4331
-20.4331
-35.8405
-35.8405
-7.00866
-7.00866
-55.0655
-55.0655
-10.2068
-10.2068
-40.8026
-40.8026
-17.6497
-17.6497
-19.9847
-19.9847
14.7806
14.7806
-0.932839
-0.932839
-10.5896
-10.5896
-22.3056
-22.3056
-6.91672
-6.91672
-29.9636
-29.9636
-7.85851
-7.85851
-4.22283
-4.22283
-4.81507
-4.81507
-15.9303
-15.9303
-22.0154
-22.0154
-9.44382
-9.44382
-1.1812
-1.1812
-9.96248
-9.96248
-8.77466
-8.77466
28.1512
28.1512
1.38671
1.38671
7.15046
7.15046
-32.0594
-32.0594
-8.26444
-8.26444
21.8562
21.8562
29.1411
29.1411
-21.4643
-21.4643
-20.2717
-20.2717
-8.67562
-8.67562
-7.49091
-7.49091
-44.4171
-44.4171
-7.36612
-7.36612
-9.05567
-9.05567
-4.97127
-4.97127
-1.20123
-1.20123
7.31782
7.31782
34.4942
34.4942
25.9519
25.9519
-9.63746
-9.63746
-7.01347
-7.01347
-4.53315
-4.53315
-8.14664
-8.14664
-11.0672
-11.0672
-5.19506
-5.19506
-6.73315
-6.73315
-7.19104
-7.19104
19.463
19.463
-8.3725
-8.3725
-27.4901
-27.4901
-7.6724
-7.6724
-9.26863
-9.26863
-9.48329
-9.48329
11.0846
11.0846
-12.4254
-12.4254
-2.59443
-2.59443
-3.69847
-3.69847
-51.321
-51.321
-5.6241
-5.6241
-8.92535
-8.92535
-29.1143
-29.1143
-23.1367
-23.1367
-10.3126
-10.3126
57.2469
57.2469
1.18904
1.18904
-55.6311
-55.6311
-6.61248
-6.61248
-18.5849
-18.5849
24.8287
24.8287
-9.44221
-9.44221
-7.1769
-7.1769
32.7407
32.7407
16.8835
16.8835
5.75584
5.75584
-48.6137
-48.6137
-13.4411
-13.4411
1.20598
1.20598
-17.3069
-17.3069
-7.59445
-7.59445
251.916
251.916
-56.9042
-56.9042
-21.8633
-21.8633
31.0504
31.0504
-7.68651
-7.68651
-32.2435
-32.2435
-20.2482
-20.2482
-0.353348
-0.353348
-5.40888
-5.40888
-5.91262
-5.91262
-9.24387
-9.24387
-53.9351
-53.9351
-3.24733
-3.24733
-7.27716
-7.27716
-8.55384
-8.55384
-23.0482
-23.0482
-19.2768
-19.2768
-5.32157
-5.32157
163.471
163.471
29.3912
29.3912
-41.8493
-41.8493
-14.7154
-14.7154
-7.38141
-7.38141
-8.80652
-8.80652
-23.9164
-23.9164
15.9152
15.9152
-0.336172
-0.336172
-25.9982
-25.9982
-20.2086
-20.2086
-4.60302
-4.60302
-37.6458
-37.6458
-7.42622
-7.42622
-0.197773
-0.197773
-8.30897
-8.30897
-7.48218
-7.48218
245.656
245.656
-7.84762
-7.84762
39.0814
39.0814
-7.16896
-7.16896
-38.2013
-38.2013
-6.43461
-6.43461
-7.21891
-7.21891
-8.02663
-8.02663
-8.16
-8.16
-6.18293
-6.18293
-57.5174
-57.5174
-8.63513
-8.63513
-54.9903
-54.9903
-6.4306
-6.4306
-10.5789
-10.5789
-7.17818
-7.17818
-7.97729
-7.97729
-6.14627
-6.14627
-20.7547
-20.7547
-1.03003
-1.03003
-9.48481
-9.48481
-7.6398
-7.6398
2.03424
2.03424
-8.34514
-8.34514
-5.24116
-5.24116
-5.6122
-5.6122
2.33418
2.33418
12.2543
12.2543
-28.5081
-28.5081
-10.4194
-10.4194
30.535
30.535
-8.47811
-8.47811
-34.176
-34.176
-7.21913
-7.21913
-7.77203
-7.77203
-8.12477
-8.12477
-7.2512
-7.2512
-0.518239
-0.518239
-11.526
-11.526
-56.7683
-56.7683
-23.8958
-23.8958
-24.161
-24.161
-45.6258
-45.6258
7.62825
7.62825
-2.79278
-2.79278
-54.5991
-54.5991
-56.7321
-56.7321
-19.8904
-19.8904
-15.2116
-15.2116
-8.46302
-8.46302
-22.8984
-22.8984
-12.0759
-12.0759
80.8234
80.8234
-48.9852
-48.9852
3.04835
3.04835
24.2527
24.2527
-23.0757
-23.0757
-8.94762
-8.94762
-7.12898
-7.12898
-7.17118
-7.17118
-58.9815
-58.9815
-3.55638
-3.55638
6.3209
6.3209
-7.88655
-7.88655
-8.19142
-8.19142
-15.4187
-15.4187
-9.15118
-9.15118
-6.70375
-6.70375
-3.13366
-3.13366
52.0823
52.0823
-6.37661
-6.37661
-6.07456
-6.07456
-7.37729
-7.37729
-45.8598
-45.8598
-7.43317
-7.43317
-7.17774