/*--------------------------------*- C++ -*----------------------------------*\
  =========                 |
  \\      /  F ield         | OpenFOAM: The Open Source CFD Toolbox
   \\    /   O peration     | Website:  https://openfoam.org
    \\  /    A nd           | Version:  8
     \\/     M anipulation  |
\*---------------------------------------------------------------------------*/
FoamFile
{
    version     2.0;
    format      ascii;
    class       volScalarField;
    location    "0.95";
    object      p_rgh;
}
// * * * * * * * * * * * * * * * * * * * * * * * * * * * * * * * * * * * * * //

dimensions      [1 -1 -2 0 0 0 0];

internalField   nonuniform List<scalar> 
1924
(
17.062
0.558694
94.8204
29.4387
0.149564
-0.618019
-1.60319
-4.96673
-6.88946
90.7052
-8.61266
-10.2405
0.443127
-12.8676
-34.9104
-33.2708
0.303465
-14.9862
98.8852
-18.2005
3.40459
-9.29358
7.68032
-18.7145
-9.35132
-13.6019
-15.4017
162.035
0.507193
22.8736
1.78924
-10.399
8.26595
-0.0660982
99.1588
7.39868
-10.7752
2.11365
24.2056
-0.653332
-11.6711
10.0865
-11.1198
2.60371
23.8377
-0.0935031
258.784
11.3816
666.287
2.81744
8.621
0.514118
-7.50681
43.1504
-0.0358784
73.4015
233.565
21.154
179.181
-10.6958
0.709429
-27.8878
0.747759
27.6885
190.796
6.45003
-15.5698
-3.11742
0.057195
7.99164
3.50399
-25.5178
27.1869
20.8005
19.9607
0.761639
0.236329
18.5793
14.7011
1.05953
-8.63924
-16.1347
21.956
1.53706
15.742
-3.11886
151.874
-31.471
300.591
2.58225
-16.0219
-14.7703
-0.213399
-0.829736
1.08233
465.633
-4.49617
-10.8654
-12.8467
2.27695
8.83768
1.07577
-14.6678
-15.0436
-0.202964
11.6545
0.762351
-3.39094
-7.81062
-0.391743
0.437393
0.464223
2.35146
24.0013
13.4618
1.72778
56.9195
-34.5917
-0.775314
8.65783
27.7242
764.379
2.89803
1.67783
-18.8141
-2.85002
0.417544
17.3386
0.0202094
810.173
2.66232
0.691323
-1.12417
23.2065
1.17312
0.428841
3.01534
0.732783
-22.4319
0.818929
53.6754
-21.5818
359.247
0.515024
21.886
815.702
-4.49426
2.30234
-4.96523
3.92597
25.9831
768.311
-0.102678
2.04629
12.4711
-3.49113
763.992
13.0399
-1.14736
22.3565
22.8719
-0.527068
1.54948
771.249
27.9697
-0.988622
-3.58229
762.052
8.97087
0.334222
-0.0575804
1.61575
11.1385
-12.1625
-14.2988
-6.68515
24.1844
3.82531
8.15462
6.08426
-8.11995
-40.3005
17.1128
-6.34624
749.877
48.528
-2.0207
-9.40565
5.4314
19.8974
-5.97177
-2.34843
-1.36982
5.95369
-6.78298
774.502
-11.5507
-6.83164
-7.20352
-7.29883
67.6294
14.3716
-0.275956
-6.69898
-0.0487661
-8.75361
2.6497
3.35662
-0.801716
2.5729
777.038
0.0140353
-28.5308
-7.43184
-10.5381
14.3874
-2.80221
-6.40335
-1.42413
16.9485
-5.88433
19.6617
-1.85262
-29.9191
-9.19573
-12.8248
-4.61912
4.80496
-7.64044
-7.64631
0.243806
-13.1252
-7.63464
3.97864
-14.101
40.2385
-31.81
-8.3143
-2.53183
780.804
-43.1568
-8.97545
-30.7726
2.0334
15.061
-0.13468
-11.5105
-12.5786
16.8522
6.81889
351.296
784.543
-6.45337
-0.803097
5.22476
-34.2549
-11.8832
-9.5495
-6.3646
-11.7872
-7.16531
-5.55262
-10.0456
14.0701
-8.52564
20.4217
20.4712
11.9297
-0.271697
358.836
-6.57517
25.5341
-0.157739
-11.4521
-11.1729
-10.7074
-13.7703
-15.2579
-0.781642
-7.80258
274.22
791.438
-15.2101
-7.12665
520.07
19.4138
-4.66671
790.932
-14.7862
-9.70583
-5.95232
23.2514
-16.404
-37.9284
5.18486
43.6774
-35.2241
2.82722
13.7897
-38.3108
798.984
-1.82441
-34.0493
-2.02971
-16.7348
-13.5264
0.760119
-30.8509
-10.2885
20.4034
1.40234
12.8922
-9.04966
-7.42973
1.1298
0.774356
-7.8495
-17.4716
-6.92768
-8.07999
21.2603
-3.09952
-0.0635435
30.7072
-15.2393
-2.47628
-10.6312
-12.0935
-9.39459
-8.05024
-8.3338
-12.6251
-0.382922
-19.1934
17.773
-17.1817
-10.2285
-7.74689
-10.0859
-4.80621
1.04661
24.7533
-8.23356
2.4605
-39.3061
-26.061
-0.0794188
-19.049
8.03872
-14.1927
-8.21028
266.292
83.7464
-41.108
5.56073
6.67996
748.889
-20.3185
-9.72198
455.757
-16.332
-43.7204
-39.0159
-11.2849
-7.58918
0.0546543
-7.68489
-0.163997
-12.3833
-7.61184
-32.808
-9.06688
-10.8939
-47.4007
-12.2353
1.94211
-43.78
-38.6683
-8.56376
-21.4753
-23.9475
9.11293
-11.682
-9.00235
-8.2744
-28.3312
19.2171
-11.6308
-11.743
-5.35137
45.0022
0.415466
-12.8254
-13.4615
-7.71585
-2.16715
-10.0796
-8.19124
-9.91901
-31.7351
815.011
13.5217
3.6433
-1.2118
760.134
-7.39731
-20.6376
-15.2647
-9.99907
-8.83748
-17.0588
1.01867
-22.9521
-7.14989
-13.7532
0.839535
-9.76861
-47.0966
-3.81896
-8.86834
-45.7341
-5.80402
-17.1065
4.27741
-6.07803
-41.559
1.59515
24.5637
-6.88382
-9.14585
-8.16117
-6.49707
-8.25773
-4.65758
-12.1179
-9.60451
-38.848
1.65439
-8.95749
-7.51917
-8.92052
-8.6432
-11.1233
83.8974
-18.6203
0.330792
-16.206
15.4797
-13.9532
-8.79301
-42.0011
-1.89654
-10.4832
-13.9605
-8.65305
-15.1101
-30.3192
-48.0442
-4.7245
-25.9964
0.937992
-7.39637
0.530915
0.230903
2.63689
-9.93168
-12.3251
-14.6944
-14.1527
16.8637
-5.68428
0.274561
20.464
-26.5551
-1.15923
3.70409
28.8085
-24.2652
-20.456
-34.2846
-14.9361
-16.7349
-4.90966
-13.9255
-6.9212
-5.26995
-5.68829
-48.1576
-6.13205
-2.16487
1.80214
-6.48372
-4.01705
-4.87195
-48.2015
-18.2559
-23.1444
-5.81729
-6.07672
30.5091
-46.1388
-46.7383
-8.6393
-7.29564
4.81751
1.47852
-50.847
-7.08688
0.258134
-40.6482
8.47237
-14.0316
-6.24585
-13.5395
-8.16089
-9.41433
-6.94319
-15.9818
-17.4382
-31.4968
-3.58517
-51.2558
-6.40053
-37.043
-11.2646
-17.1218
17.1291
2.18809
-5.33063
-16.5683
-3.76922
-26.2519
0.61709
2.36195
0.344473
-11.404
-15.9507
-2.36911
0.258248
-4.02494
-6.28737
31.4373
14.9674
10.8411
-28.1199
-2.3887
23.7644
30.5268
-17.2653
-15.9488
-1.72452
-3.5282
-39.9829
-4.84587
-3.67215
1.08773
8.18284
13.5827
36.2747
28.0402
-5.28574
-4.08361
-0.551158
-3.87691
-8.99539
-3.64441
-2.90089
-4.90692
21.516
-5.94644
-23.3587
-3.56102
-3.79739
-5.19531
14.4009
-7.3826
5.01173
0.31573
-47.7061
-1.43708
-5.96672
-24.7841
-20.0965
-5.4217
240.257
19.2387
-51.8871
78.947
-15.0307
26.2577
-3.09984
-0.726899
323.896
88.2012
23.6396
-45.0634
-9.02437
4.84108
-12.7156
1.19281
458.314
-53.0914
-14.771
32.5868
-4.31265
-28.5588
-17.3239
3.21294
-3.78022
252.451
-3.03607
-49.4774
3.26376
-3.36912
-5.8117
-18.6085
-13.8293
-1.89392
438.464
30.7127
-37.9186
-11.2282
-5.02572
-5.85509
-20.5986
18.1882
12.4496
-21.1045
-17.1676
2.97419
-33.0541
-0.3414
3.55849
10.5718
-5.07222
462.018
-0.896492
76.9139
0.109469
-34.2334
-2.39619
-1.03998
-4.3125
-1.57493
-0.0809162
-53.5783
-5.58271
-50.7742
0.950009
-8.41566
-1.7117
-1.95756
48.0301
-13.9567
7.52476
-3.87502
-5.34517
5.50873
-1.74927
1.97597
-3.91672
28.0828
14.7487
-23.9382
-4.72507
32.1346
-4.64002
-29.0077
-0.741319
-2.63879
-5.32222
-3.3395
0.612538
-7.80257
-52.7562
-20.0948
-20.9972
-41.3851
24.0744
20.0578
-50.8551
-52.9235
-15.1571
-10.4785
-5.53122
-19.6284
-7.61031
727.795
-45.3702
14.2951
25.8025
-17.9495
-6.50301
-2.00616
-4.7363
-55.0301
4.19995
9.95135
-5.33494
-5.02087
-11.8426
6.46014
0.538378
-1.22149
264.957
1.03415
0.70456
-4.06518
-42.3093
-4.9566
-0.436623
28.1865
0.299865
811.156
-2.95097
-16.4506
-1.42599
-1.70242
-55.1685
620.093
11.5027
-21.5209
-0.471304
30.0996
-37.0807
7.78257
2.12297
482.254
-2.51077
-34.3734
-2.67025
8.21153
32.3358
-4.90638
-11.3523
-4.61365
-8.21367
1.65332
-16.3047
10.3366
128.155
-3.6151
-8.34335
466.687
-8.50906
91.2472
-2.36391
38.2504
-4.88851
-29.2239
-5.06439
-1.18075
-23.2922
36.5268
33.4418
-14.651
25.4044
460.651
814.244
-19.1201
19.8654
-4.54527
-49.7032
-20.4161
-5.00311
3.15604
-3.78475
-5.06916
16.3396
-2.87719
-29.4636
-3.20254
70.9669
-0.191429
-1.38248
-50.5234
-3.64203
-4.03337
17.5188
1.56402
8.57396
4.51577
-22.3398
-3.0605
-23.8113
16.0635
-45.0065
0.348783
-55.4066
29.5923
3.04612
-4.76462
-54.2859
-2.04079
-4.96083
-16.1798
-47.5665
469.814
1.82512
-5.08182
0.494959
0.0246034
-4.55147
30.8378
-1.78323
-53.0959
37.1179
-25.8271
-2.88762
-2.52759
14.9983
-41.6303
37.0294
471.765
-1.26864
29.9808
-14.2437
32.0728
-4.75321
-4.21166
24.461
-13.6766
-55.2588
21.0829
-6.61768
-38.3641
-4.91853
-9.30744
-3.14643
11.7733
-37.1175
-8.77054
-4.71279
-3.24495
-4.70627
-3.54161
6.33038
-11.6787
-27.9428
738.788
-10.298
477.353
-2.77615
-4.01721
754.918
-5.11876
-2.49889
-4.71344
-19.7426
-5.11886
-24.5577
-3.47274
51.38
0.914289
-33.2372
1.04125
71.3428
0.520575
294.789
9.54135
-10.0485
-54.2178
1.19957
20.8642
7.1717
-2.27729
142.669
-4.17161
110.639
52.7746
-24.4224
-3.48073
968.667
-20.6161
-4.83012
26.6709
-6.1646
957.141
692.684
1.78147
35.5465
-4.832
-16.8428
17.5087
-1.94917
-4.59877
-2.27853
-13.107
-4.78311
-6.95544
-4.80015
-15.9667
1008.69
-50.5399
-53.0908
-50.9978
-45.9385
-25.3814
8.42297
-44.4363
73.5029
17.5571
-2.42639
482.813
-3.76738
-4.72953
-54.8517
32.5175
-3.04185
-54.7741
-3.29267
29.5469
-42.6856
420.957
464.528
-2.47618
36.9403
-3.9852
1.16535
5.08784
10.9811
-40.7741
-4.69383
805.263
-36.0261
120.906
-12.4206
-14.4406
-26.6768
-1.78397
-4.76141
-22.4978
-3.75593
-4.19896
0.696916
-2.41104
-11.751
-4.93458
-1.67362
-1.10902
-0.286516
533.05
-31.0392
275.362
443.625
-0.970271
-4.77241
0.988913
184.121
-32.4774
108.983
-4.19706
97.2625
-4.83672
-7.6537
718.497
321.389
6.05183
82.8332
-16.5592
292.139
-24.3613
-4.87261
-26.3866
265.333
-2.21197
-52.6228
-4.75451
-1.38967
105.756
-7.48167
1.8998
9.30673
-3.83105
-46.8602
35.783
1.4302
-0.914044
-5.12421
-3.80126
-28.3853
1.80608
12.2323
3.8804
-4.23328
-3.59927
-4.76419
44.7968
44.9939
-4.89052
-5.89528
-1.95926
-19.9222
-4.79285
-4.92471
3.19985
-4.26954
-7.85988
-9.61139
806.666
-3.85821
119.204
59.6826
-13.7744
-4.91329
-2.67056
-39.1949
-15.5955
-48.302
64.9481
-4.83751
443.981
-21.8268
-0.945885
-45.5575
-40.7071
-1.13974
-1.39888
-3.61419
-3.9423
-52.726
-47.6887
-51.8239
708.426
-2.3579
-13.6788
-1.32487
3.79567
0.352085
19.2782
27.0624
407.272
54.2286
-37.9825
-5.19508
521.195
467.693
-0.867783
-18.9416
115.097
-4.81149
579.914
-35.2237
-31.2652
-3.56836
-18.4927
-2.06023
-29.7935
1.29713
1.30951
-2.21276
-4.79069
-52.4265
524.804
-4.89822
-2.45714
-22.2284
-4.36131
-51.4174
-2.38263
-4.89294
1.30563
220.484
-5.00536
40.7452
852.796
-7.34511
-44.9632
-3.46042
-25.4381
384.946
-27.0528
369.176
-4.89642
-5.16411
1.2612
2.34227
457.488
-12.6352
-3.89503
-3.69562
27.1761
-1.70457
-3.15781
849.827
1016.21
-1.15645
-22.4319
2.26984
-23.7867
-5.12666
4.24425
-8.63733
22.9627
30.3602
-4.92206
0.0324136
-40.9517
-0.429437
2.64379
715.962
-4.66079
-4.86036
15.9681
28.6904
0.972178
538.262
6.36265
-0.836591
-5.40788
1.05884
508.38
-3.44597
468.531
461.423
-24.2034
1010.12
-4.90876
-48.1212
-5.34865
-4.47929
-5.09098
1011.67
-16.8782
-46.3989
-42.5084
-3.97508
1.06431
-4.34134
12.9715
-20.3514
-10.0111
-2.27458
-32.9104
-3.52936
-4.84352
-3.76508
-39.9971
-32.753
661.129
0.775909
-13.7343
517.036
597.306
457.619
-4.63361
13.8789
-4.6721
1.42074
35.1197
1086.58
3.06678
-30.1617
-28.7007
-6.41189
-45.3772
-49.6158
996.711
-0.646208
274.999
1.33065
-1.75708
485.011
9.28898
-5.05263
914.291
696.345
0.623816
-20.6568
-4.48246
-49.5266
8.53799
5.71025
789.274
-26.955
-5.26228
4.73219
56.8802
18.0365
-3.33546
-2.09113
91.249
-22.0536
9.67586
-5.44261
-2.89148
500.492
-3.83993
-5.18908
0.907745
4.19171
-5.22519
-0.521583
54.9121
39.4297
-8.55321
808.34
-3.32189
-4.347
997.383
-0.834162
-37.7702
1.9573
-3.29565
2.03239
-0.401141
-4.1269
788.071
-14.9455
-5.45149
-0.981287
-45.9345
607.995
-18.6026
0.703196
341.002
-12.1433
-1.88396
-42.0246
143.951
6.62176
-5.76994
-2.11809
0.496621
616.713
-33.7976
805.379
770.836
479.882
0.725795
-40.0788
-3.93646
-6.08171
-44.4356
-6.23017
-3.49388
-9.50141
4.89753
-0.0988244
-2.35681
-47.641
-2.60125
3.78826
803.029
767.771
-26.6317
-3.90673
3.51123
-4.45622
65.0915
-1.65688
-3.40489
-2.18254
5.53529
-0.817831
48.1125
-33.4695
434.921
807.668
4.94141
-1.53968
-1.74908
452.066
736.156
-2.22357
1026.95
7.80602
0.303701
-2.56934
-44.9739
0.690589
-30.7456
887.188
326.287
-29.8335
-4.09683
-23.0561
1.04201
1.88429
768.303
512.236
-0.0813906
-2.4158
627.773
-0.8133
-7.45003
-5.15827
-15.9952
-1.04675
-4.70874
-0.0695029
-3.04851
-0.46153
786.718
3.20373
1021.93
-4.51057
-12.626
-4.88871
-4.16134
28.9912
-5.4621
-2.16755
794.351
-41.1372
0.916484
-27.3413
-0.155671
24.5665
-0.498065
-7.80221
8.65109
29.2177
334.971
-1.35237
-37.4276
15.8956
858.902
0.266381
-0.350129
470.634
-2.8981
0.677941
1.47782
-1.23239
-6.30814
33.042
-0.893656
-38.7945
89.0944
0.676237
-37.3815
12.1372
-4.79022
-5.05711
1031.44
-34.7254
1033.97
-29.6492
6.87224
16.9702
820.699
1.4556
2.09124
480.364
5.56562
1.21009
259.505
1.03368
-4.20254
-4.15517
-44.7749
568.487
12.2484
2.8188
-9.79244
-0.0597442
1085.63
870.89
908.491
782.668
3.29589
859.969
-2.83944
-20.203
-2.38765
0.723332
-17.1813
6.22972
367.414
-4.46786
37.6968
37.9059
-26.412
-7.30342
770.941
6.73499
-4.82181
779.724
-3.11716
271.081
964.521
86.074
0.0965009
769.437
766.304
406.097
291.681
-41.0969
796.053
1.01582
-4.44187
57.0883
383.654
2.25752
8.49506
-31.0671
1018.01
173.064
-3.71017
720.086
3.99562
2.49097
808.719
4.0127
264.263
-4.50958
970.124
0.851959
-4.03813
0.107689
-4.60118
-2.75016
-0.402051
0.888088
-5.87131
204.97
-1.89655
71.8476
0.96815
-31.4566
-6.09615
960.231
-0.976657
556.274
777.974
371.819
-43.9684
-39.7754
-1.77499
-4.61203
0.979043
875.02
1.85804
-0.325806
-6.33274
-30.3657
-13.1843
990.031
7.57617
-30.3689
2.82791
-5.71645
-10.244
15.6296
199.839
-4.7375
0.4734
124.453
0.529614
-39.0333
-33.7294
2.11883
-32.4097
-20.0147
463.568
-2.09696
-3.40625
-0.554222
385.142
-5.89294
-3.74319
-0.348716
15.0545
51.5399
-3.88408
-31.2307
-4.39905
-31.857
-6.22288
-3.65977
741.237
-22.6408
745.935
-28.4464
1004.11
0.37995
804.441
7.04009
5.4145
2.52684
-1.08107
778.998
-5.02585
1.36377
751.853
842.207
713.906
67.8582
-3.34148
-31.9766
-39.3478
730.655
-24.1103
-23.4553
996.839
-0.0564222
947.37
-6.50897
-3.18231
1.62763
-5.48914
-3.56003
983.936
-25.6372
184.531
4.06387
-2.80569
-24.4495
-3.94981
719.324
261.629
-8.26109
68.961
254.723
50.8943
280.183
-7.11213
-16.3358
374.589
0.450798
3.4731
107.154
-5.57045
-16.6293
896.336
22.8106
272.537
-1.53065
1.07095
-6.07736
-12.962
-4.16899
-4.51654
-6.35956
285.505
1044.52
1051.4
362.196
-2.75497
2.87975
-5.63612
-0.560256
-3.71943
758.138
6.3132
-3.17525
-7.25908
3.54888
985.442
1011.66
695.055
453.398
-2.52364
71.6273
813.083
-17.0177
-4.41766
-5.45104
-10.6119
-3.69055
215.788
198.969
5.49607
11.2073
155.985
-20.3265
385.597
-5.107
-3.57043
790.941
7.78686
6.46988
8.53642
1017.84
-22.6694
-22.355
-6.66943
-7.51009
-36.2562
-5.33489
-3.15731
-31.3719
-2.84351
974.965
-27.6711
-3.74859
2.20264
978.413
-22.4982
477.929
-28.6168
854.055
56.2399
715.514
-11.4098
-2.68827
-4.66572
-7.5852
6.34051
-7.90801
771.441
916.514
-25.2909
-4.40143
-20.771
-15.8241
-3.47801
-23.4638
-6.75593
-4.34246
-3.76538
-46.4021
-25.8903
-24.4288
947.282
4.90129
-4.15678
-3.41675
-31.637
-2.7615
-14.4028
75.3003
-10.7052
736.639
-25.8271
391.52
950.825
-3.12302
-0.919428
891.542
-16.4576
-6.87245
-7.03845
8.02007
-3.87443
6.05207
8.71785
-18.7862
-31.4064
6.01748
11.3594
-3.48186
1.14574
-37.7518
-5.10757
569.507
-4.81628
-9.63299
-4.99894
-15.9334
-3.84975
-20.0168
965.182
943.258
-15.225
728.601
4.07918
-9.81772
1.19412
-13.881
-5.80566
20.2983
-3.41047
-0.767056
-12.895
-3.83539
-13.3725
-4.27152
9.11753
743.257
753.863
-4.92201
-21.0351
9.14679
924.704
1.46952
82.5647
8.69492
-7.87834
-10.1167
85.932
-9.35663
403.391
432.2
-4.9832
-4.64082
-4.3152
-3.97865
-7.66699
5.82019
-2.30166
25.7583
85.6489
92.7506
-4.51796
957.839
-4.66092
-1.8447
-3.76926
730.84
717.526
-12.3084
-4.42824
5.83419
-4.62752
-5.21312
-7.88356
-3.13532
82.0768
4.30391
-4.31748
19.1901
-2.54622
101.846
20.4986
-3.90245
-16.4796
105.803
87.9253
20.4169
85.787
6.80259
9.78367
4.24898
-16.2031
-1.91981
30.1
-4.12684
-9.33314
98.619
105.523
-3.79988
419.004
45.1276
12.4452
-5.7809
916.156
-0.540473
112.389
-3.96971
3.56216
25.1831
32.3555
-1.39688
-2.8283
0.145974
85.2945
32.6615
92.5844
126.822
19.932
5.55952
8.43304
-3.3037
36.901
155.153
62.3319
33.7599
12.5474
11.7259
8.1922
-4.75737
8.29796
-3.75958
29.5349
28.0528
-3.56946
-16.7781
22.7648
22.4979
37.4023
32.7644
15.2107
731.251
738.605
15.3182
738.875
25.5321
742.685
324.842
330.194
8.21409
228.769
225.594
531.411
303.346
337.503
471.821
438.244
7.71563
12.2727
-4.06651
21.4562
19.7233
7.92232
4.82312
39.7476
345.783
342.93
313.365
310.178
309.753
241.679
2.43302
37.422
15.059
14.9152
-0.676999
4.94499
918.232
927.488
807.625
317.533
792.039
938.402
970.079
1.95306
524.672
987.08
951.526
748.057
11.7446
850.726
246.66
937.027
834.775
-1.53243
747.386
803.054
-0.0716762
821.317
43.7684
0.0854135
835.973
449.543
444.874
786.295
766.813
777.994
758.607
779.118
774.265
23.9284
564.554
836.725
1079.97
1088.2
1088.23
829.792
-1.69293
-4.53244
1072.73
623.85
606.006
831.911
824.943
803.65
317.424
11.2328
1022.32
756.804
755.967
986.279
790.396
764.159
795.209
778.312
755.238
771.343
760.426
758.357
34.4552
-4.9201
1086
8.94179
746.436
1085.63
604.873
1081.84
3.83089
1076.04
1.45602
1074.01
32.9095
5.95495
1090.32
1.75044
1054.32
682.343
1036.24
-19.664
337.264
1.03877
444.48
1047.78
-23.7433
1045.58
663.64
987.841
5.99708
1.79409
-24.9146
730.186
700.635
760.6
0.0673045
-15.499
614.451
-23.1637
-2.10277
736.521
1.23981
-21.1319
437.873
-3.66208
420.75
923.037
1087.25
728.874
-4.11628
758.633
758.253
-22.0591
)
;

boundaryField
{
    patch0
    {
        type            fixedFluxPressure;
        gradient        uniform 0;
        value           nonuniform List<scalar> 
4010
(
17.062
17.062
0.558694
0.558694
94.8204
94.8204
29.4387
29.4387
0.149564
0.149564
-0.618019
-0.618019
-1.60319
-1.60319
-4.96673
-4.96673
-6.88946
-6.88946
90.7052
90.7052
-8.61266
-8.61266
-10.2405
-10.2405
0.443127
0.443127
-12.8676
-12.8676
-34.9104
-34.9104
-33.2708
-33.2708
0.303465
0.303465
-14.9862
-14.9862
98.8852
98.8852
-18.2005
-18.2005
3.40459
3.40459
-9.29358
-9.29358
7.68032
7.68032
-18.7145
-18.7145
-9.35132
-9.35132
-13.6019
-13.6019
-15.4017
-15.4017
162.035
162.035
0.507193
0.507193
22.8736
22.8736
1.78924
1.78924
-10.399
-10.399
8.26595
8.26595
-0.0660982
-0.0660982
99.1588
99.1588
7.39868
7.39868
-10.7752
-10.7752
2.11365
2.11365
24.2056
24.2056
-0.653332
-0.653332
-11.6711
-11.6711
10.0865
10.0865
-11.1198
-11.1198
2.60371
2.60371
23.8377
23.8377
-0.0935031
-0.0935031
258.784
258.784
11.3816
11.3816
666.287
666.287
2.81744
2.81744
8.621
8.621
0.514118
0.514118
-7.50681
-7.50681
43.1504
43.1504
-0.0358784
-0.0358784
73.4015
73.4015
233.565
233.565
21.154
21.154
179.181
179.181
-10.6958
-10.6958
0.709429
0.709429
-27.8878
-27.8878
0.747759
0.747759
27.6885
27.6885
190.796
190.796
6.45003
6.45003
-15.5698
-15.5698
-3.11742
-3.11742
0.057195
0.057195
7.99164
7.99164
3.50399
3.50399
-25.5178
-25.5178
27.1869
27.1869
20.8005
20.8005
19.9607
19.9607
0.761639
0.761639
0.236329
0.236329
18.5793
18.5793
14.7011
14.7011
1.05953
1.05953
-8.63924
-8.63924
-16.1347
-16.1347
21.956
21.956
1.53706
1.53706
15.742
15.742
-3.11886
-3.11886
151.874
151.874
-31.471
-31.471
300.591
300.591
2.58225
2.58225
-16.0219
-16.0219
-14.7703
-14.7703
-0.213399
-0.213399
-0.829736
-0.829736
1.08233
1.08233
465.633
465.633
-4.49617
-4.49617
-10.8654
-10.8654
-12.8467
-12.8467
2.27695
2.27695
8.83768
8.83768
1.07577
1.07577
-14.6678
-14.6678
-15.0436
-15.0436
-0.202964
-0.202964
11.6545
11.6545
0.762351
0.762351
-3.39094
-3.39094
-7.81062
-7.81062
-0.391743
-0.391743
0.437393
0.437393
0.464223
0.464223
2.35146
2.35146
24.0013
24.0013
13.4618
13.4618
1.72778
1.72778
56.9195
56.9195
-34.5917
-34.5917
-0.775314
-0.775314
8.65783
8.65783
27.7242
27.7242
764.379
764.379
2.89803
2.89803
1.67783
1.67783
-18.8141
-18.8141
-2.85002
-2.85002
0.417544
0.417544
17.3386
17.3386
0.0202094
0.0202094
810.173
810.173
2.66232
2.66232
0.691323
0.691323
-1.12417
-1.12417
23.2065
23.2065
1.17312
1.17312
0.428841
0.428841
3.01534
3.01534
0.732783
0.732783
-22.4319
-22.4319
0.818929
0.818929
53.6754
53.6754
-21.5818
-21.5818
359.247
359.247
359.247
0.515024
0.515024
0.515024
21.886
21.886
815.702
815.702
-4.49426
-4.49426
2.30234
2.30234
-4.96523
-4.96523
3.92597
3.92597
25.9831
25.9831
768.311
768.311
768.311
-0.102678
-0.102678
2.04629
2.04629
12.4711
12.4711
-3.49113
-3.49113
763.992
763.992
13.0399
13.0399
-1.14736
-1.14736
22.3565
22.3565
22.8719
22.8719
-0.527068
-0.527068
1.54948
1.54948
771.249
771.249
27.9697
27.9697
-0.988622
-0.988622
-3.58229
-3.58229
762.052
762.052
8.97087
8.97087
0.334222
0.334222
-0.0575804
-0.0575804
1.61575
1.61575
11.1385
11.1385
-12.1625
-12.1625
-14.2988
-14.2988
-6.68515
-6.68515
24.1844
24.1844
3.82531
3.82531
8.15462
8.15462
6.08426
6.08426
-8.11995
-8.11995
-40.3005
-40.3005
17.1128
17.1128
-6.34624
-6.34624
749.877
749.877
48.528
48.528
-2.0207
-2.0207
-9.40565
-9.40565
5.4314
5.4314
19.8974
19.8974
-5.97177
-5.97177
-2.34843
-2.34843
-1.36982
-1.36982
5.95369
5.95369
-6.78298
-6.78298
774.502
774.502
774.502
-11.5507
-11.5507
-6.83164
-6.83164
-7.20352
-7.20352
-7.29883
-7.29883
67.6294
67.6294
14.3716
14.3716
-0.275956
-0.275956
-6.69898
-6.69898
-0.0487661
-0.0487661
-8.75361
-8.75361
2.6497
2.6497
3.35662
3.35662
-0.801716
-0.801716
2.5729
2.5729
2.5729
777.038
777.038
0.0140353
0.0140353
-28.5308
-28.5308
-7.43184
-7.43184
-10.5381
-10.5381
14.3874
14.3874
-2.80221
-2.80221
-6.40335
-6.40335
-1.42413
-1.42413
16.9485
16.9485
-5.88433
-5.88433
19.6617
19.6617
-1.85262
-1.85262
-29.9191
-29.9191
-9.19573
-9.19573
-12.8248
-12.8248
-4.61912
-4.61912
4.80496
4.80496
-7.64044
-7.64044
-7.64631
-7.64631
0.243806
0.243806
-13.1252
-13.1252
-7.63464
-7.63464
3.97864
3.97864
-14.101
-14.101
40.2385
40.2385
40.2385
-31.81
-31.81
-8.3143
-8.3143
-2.53183
-2.53183
780.804
780.804
780.804
-43.1568
-43.1568
-8.97545
-8.97545
-30.7726
-30.7726
2.0334
2.0334
15.061
15.061
-0.13468
-0.13468
-11.5105
-11.5105
-12.5786
-12.5786
16.8522
16.8522
6.81889
6.81889
351.296
351.296
784.543
784.543
-6.45337
-6.45337
-0.803097
-0.803097
5.22476
5.22476
-34.2549
-34.2549
-11.8832
-11.8832
-9.5495
-9.5495
-6.3646
-6.3646
-11.7872
-11.7872
-7.16531
-7.16531
-5.55262
-5.55262
-10.0456
-10.0456
14.0701
14.0701
-8.52564
-8.52564
20.4217
20.4217
20.4712
20.4712
11.9297
11.9297
-0.271697
-0.271697
358.836
358.836
-6.57517
-6.57517
25.5341
25.5341
-0.157739
-0.157739
-11.4521
-11.4521
-11.1729
-11.1729
-10.7074
-10.7074
-13.7703
-13.7703
-15.2579
-15.2579
-0.781642
-0.781642
-7.80258
-7.80258
274.22
274.22
791.438
791.438
791.438
-15.2101
-15.2101
-7.12665
-7.12665
520.07
520.07
19.4138
19.4138
-4.66671
-4.66671
790.932
790.932
-14.7862
-14.7862
-9.70583
-9.70583
-5.95232
-5.95232
23.2514
23.2514
-16.404
-16.404
-37.9284
-37.9284
5.18486
5.18486
43.6774
43.6774
-35.2241
-35.2241
2.82722
2.82722
13.7897
13.7897
-38.3108
-38.3108
798.984
798.984
798.984
-1.82441
-1.82441
-34.0493
-34.0493
-2.02971
-2.02971
-16.7348
-16.7348
-13.5264
-13.5264
0.760119
0.760119
-30.8509
-30.8509
-10.2885
-10.2885
20.4034
20.4034
1.40234
1.40234
12.8922
12.8922
-9.04966
-9.04966
-7.42973
-7.42973
1.1298
1.1298
0.774356
0.774356
-7.8495
-7.8495
-17.4716
-17.4716
-6.92768
-6.92768
-8.07999
-8.07999
21.2603
21.2603
-3.09952
-3.09952
-0.0635435
-0.0635435
30.7072
30.7072
-15.2393
-15.2393
-2.47628
-2.47628
-10.6312
-10.6312
-12.0935
-12.0935
-9.39459
-9.39459
-8.05024
-8.05024
-8.3338
-8.3338
-12.6251
-12.6251
-0.382922
-0.382922
-19.1934
-19.1934
17.773
17.773
-17.1817
-17.1817
-10.2285
-10.2285
-7.74689
-7.74689
-10.0859
-10.0859
-4.80621
-4.80621
1.04661
1.04661
24.7533
24.7533
-8.23356
-8.23356
2.4605
2.4605
-39.3061
-39.3061
-26.061
-26.061
-0.0794188
-0.0794188
-19.049
-19.049
8.03872
8.03872
-14.1927
-14.1927
-8.21028
-8.21028
266.292
266.292
83.7464
83.7464
-41.108
-41.108
5.56073
5.56073
6.67996
6.67996
748.889
748.889
-20.3185
-20.3185
-9.72198
-9.72198
455.757
455.757
-16.332
-16.332
-43.7204
-43.7204
-39.0159
-39.0159
-11.2849
-11.2849
-7.58918
-7.58918
0.0546543
0.0546543
-7.68489
-7.68489
-0.163997
-0.163997
-12.3833
-12.3833
-7.61184
-7.61184
-32.808
-32.808
-9.06688
-9.06688
-10.8939
-10.8939
-47.4007
-47.4007
-12.2353
-12.2353
1.94211
1.94211
-43.78
-43.78
-38.6683
-38.6683
-8.56376
-8.56376
-21.4753
-21.4753
-23.9475
-23.9475
9.11293
9.11293
-11.682
-11.682
-9.00235
-9.00235
-8.2744
-8.2744
-28.3312
-28.3312
19.2171
19.2171
-11.6308
-11.6308
-11.743
-11.743
-5.35137
-5.35137
45.0022
45.0022
0.415466
0.415466
-12.8254
-12.8254
-13.4615
-13.4615
-7.71585
-7.71585
-2.16715
-2.16715
-2.16715
-10.0796
-10.0796
-8.19124
-8.19124
-9.91901
-9.91901
-31.7351
-31.7351
815.011
815.011
13.5217
13.5217
3.6433
3.6433
-1.2118
-1.2118
760.134
760.134
760.134
-7.39731
-7.39731
-20.6376
-20.6376
-15.2647
-15.2647
-9.99907
-9.99907
-8.83748
-8.83748
-17.0588
-17.0588
1.01867
1.01867
-22.9521
-22.9521
-7.14989
-7.14989
-13.7532
-13.7532
0.839535
0.839535
-9.76861
-9.76861
-47.0966
-47.0966
-3.81896
-3.81896
-8.86834
-8.86834
-45.7341
-45.7341
-5.80402
-5.80402
-17.1065
-17.1065
4.27741
4.27741
-6.07803
-6.07803
-41.559
-41.559
1.59515
1.59515
24.5637
24.5637
-6.88382
-6.88382
-9.14585
-9.14585
-8.16117
-8.16117
-6.49707
-6.49707
-8.25773
-8.25773
-4.65758
-4.65758
-12.1179
-12.1179
-9.60451
-9.60451
-38.848
-38.848
1.65439
1.65439
-8.95749
-8.95749
-7.51917
-7.51917
-8.92052
-8.92052
-8.6432
-8.6432
-11.1233
-11.1233
83.8974
83.8974
-18.6203
-18.6203
0.330792
0.330792
0.330792
-16.206
-16.206
15.4797
15.4797
-13.9532
-13.9532
-8.79301
-8.79301
-42.0011
-42.0011
-1.89654
-1.89654
-10.4832
-10.4832
-13.9605
-13.9605
-8.65305
-8.65305
-15.1101
-15.1101
-30.3192
-30.3192
-48.0442
-48.0442
-4.7245
-4.7245
-25.9964
-25.9964
0.937992
0.937992
-7.39637
-7.39637
0.530915
0.530915
0.230903
0.230903
2.63689
2.63689
-9.93168
-9.93168
-12.3251
-12.3251
-14.6944
-14.6944
-14.1527
-14.1527
16.8637
16.8637
-5.68428
-5.68428
0.274561
0.274561
20.464
20.464
-26.5551
-26.5551
-1.15923
-1.15923
3.70409
3.70409
28.8085
28.8085
-24.2652
-24.2652
-20.456
-20.456
-34.2846
-34.2846
-14.9361
-14.9361
-16.7349
-16.7349
-4.90966
-4.90966
-13.9255
-13.9255
-6.9212
-6.9212
-5.26995
-5.26995
-5.68829
-5.68829
-48.1576
-48.1576
-6.13205
-6.13205
-2.16487
-2.16487
1.80214
1.80214
-6.48372
-6.48372
-4.01705
-4.01705
-4.87195
-4.87195
-48.2015
-48.2015
-18.2559
-18.2559
-23.1444
-23.1444
-5.81729
-5.81729
-6.07672
-6.07672
30.5091
30.5091
-46.1388
-46.1388
-46.7383
-46.7383
-8.6393
-8.6393
-7.29564
-7.29564
4.81751
4.81751
1.47852
1.47852
-50.847
-50.847
-7.08688
-7.08688
0.258134
0.258134
-40.6482
-40.6482
8.47237
8.47237
-14.0316
-14.0316
-6.24585
-6.24585
-13.5395
-13.5395
-8.16089
-8.16089
-9.41433
-9.41433
-6.94319
-6.94319
-15.9818
-15.9818
-17.4382
-17.4382
-31.4968
-31.4968
-3.58517
-3.58517
-51.2558
-51.2558
-6.40053
-6.40053
-37.043
-37.043
-11.2646
-11.2646
-17.1218
-17.1218
17.1291
17.1291
2.18809
2.18809
-5.33063
-5.33063
-16.5683
-16.5683
-3.76922
-3.76922
-26.2519
-26.2519
0.61709
0.61709
2.36195
2.36195
0.344473
0.344473
-11.404
-11.404
-15.9507
-15.9507
-2.36911
-2.36911
0.258248
0.258248
-4.02494
-4.02494
-6.28737
-6.28737
31.4373
31.4373
14.9674
14.9674
10.8411
10.8411
-28.1199
-28.1199
-2.3887
-2.3887
23.7644
23.7644
30.5268
30.5268
-17.2653
-17.2653
-15.9488
-15.9488
-1.72452
-1.72452
-3.5282
-3.5282
-39.9829
-39.9829
-4.84587
-4.84587
-3.67215
-3.67215
1.08773
1.08773
8.18284
8.18284
13.5827
13.5827
36.2747
36.2747
28.0402
28.0402
-5.28574
-5.28574
-4.08361
-4.08361
-0.551158
-0.551158
-3.87691
-3.87691
-8.99539
-8.99539
-3.64441
-3.64441
-2.90089
-2.90089
-4.90692
-4.90692
21.516
21.516
-5.94644
-5.94644
-23.3587
-23.3587
-3.56102
-3.56102
-3.79739
-3.79739
-5.19531
-5.19531
14.4009
14.4009
-7.3826
-7.3826
5.01173
5.01173
0.31573
0.31573
-47.7061
-47.7061
-1.43708
-1.43708
-5.96672
-5.96672
-24.7841
-24.7841
-20.0965
-20.0965
-5.4217
-5.4217
240.257
240.257
19.2387
19.2387
-51.8871
-51.8871
78.947
78.947
-15.0307
-15.0307
26.2577
26.2577
-3.09984
-3.09984
-0.726899
-0.726899
323.896
323.896
88.2012
88.2012
23.6396
23.6396
-45.0634
-45.0634
-9.02437
-9.02437
4.84108
4.84108
-12.7156
-12.7156
1.19281
1.19281
458.314
458.314
-53.0914
-53.0914
-14.771
-14.771
32.5868
32.5868
-4.31265
-4.31265
-28.5588
-28.5588
-17.3239
-17.3239
3.21294
3.21294
-3.78022
-3.78022
252.451
252.451
-3.03607
-3.03607
-49.4774
-49.4774
3.26376
3.26376
-3.36912
-3.36912
-5.8117
-5.8117
-18.6085
-18.6085
-13.8293
-13.8293
-1.89392
-1.89392
438.464
438.464
30.7127
30.7127
-37.9186
-37.9186
-11.2282
-11.2282
-5.02572
-5.02572
-5.85509
-5.85509
-20.5986
-20.5986
18.1882
18.1882
12.4496
12.4496
-21.1045
-21.1045
-17.1676
-17.1676
2.97419
2.97419
-33.0541
-33.0541
-0.3414
-0.3414
3.55849
3.55849
10.5718
10.5718
-5.07222
-5.07222
462.018
462.018
-0.896492
-0.896492
76.9139
76.9139
0.109469
0.109469
-34.2334
-34.2334
-2.39619
-2.39619
-1.03998
-1.03998
-4.3125
-4.3125
-1.57493
-1.57493
-0.0809162
-0.0809162
-53.5783
-53.5783
-5.58271
-5.58271
-50.7742
-50.7742
0.950009
0.950009
-8.41566
-8.41566
-1.7117
-1.7117
-1.95756
-1.95756
48.0301
48.0301
-13.9567
-13.9567
7.52476
7.52476
-3.87502
-3.87502
-5.34517
-5.34517
5.50873
5.50873
-1.74927
-1.74927
1.97597
1.97597
-3.91672
-3.91672
28.0828
28.0828
14.7487
14.7487
-23.9382
-23.9382
-4.72507
-4.72507
32.1346
32.1346
-4.64002
-4.64002
-29.0077
-29.0077
-0.741319
-0.741319
-2.63879
-2.63879
-5.32222
-5.32222
-3.3395
-3.3395
0.612538
0.612538
-7.80257
-7.80257
-52.7562
-52.7562
-20.0948
-20.0948
-20.9972
-20.9972
-41.3851
-41.3851
24.0744
24.0744
20.0578
20.0578
-50.8551
-50.8551
-52.9235
-52.9235
-15.1571
-15.1571
-10.4785
-10.4785
-5.53122
-5.53122
-19.6284
-19.6284
-7.61031
-7.61031
727.795
727.795
-45.3702
-45.3702
14.2951
14.2951
25.8025
25.8025
-17.9495
-17.9495
-6.50301
-6.50301
-2.00616
-2.00616
-4.7363
-4.7363
-55.0301
-55.0301
4.19995
4.19995
9.95135
9.95135
-5.33494
-5.33494
-5.02087
-5.02087
-11.8426
-11.8426
6.46014
6.46014
0.538378
0.538378
-1.22149
-1.22149
264.957
264.957
1.03415
1.03415
0.70456
0.70456
-4.06518
-4.06518
-42.3093
-42.3093
-4.9566
-4.9566
-0.436623
-0.436623
28.1865
28.1865
0.299865
0.299865
811.156
811.156
-2.95097
-2.95097
-16.4506
-16.4506
-1.42599
-1.42599
-1.70242
-1.70242
-55.1685
-55.1685
620.093
620.093
11.5027
11.5027
-21.5209
-21.5209
-0.471304
-0.471304
30.0996
30.0996
-37.0807
-37.0807
7.78257
7.78257
2.12297
2.12297
2.12297
482.254
482.254
-2.51077
-2.51077
-34.3734
-34.3734
-2.67025
-2.67025
8.21153