/*--------------------------------*- C++ -*----------------------------------*\
  =========                 |
  \\      /  F ield         | OpenFOAM: The Open Source CFD Toolbox
   \\    /   O peration     | Website:  https://openfoam.org
    \\  /    A nd           | Version:  8
     \\/     M anipulation  |
\*---------------------------------------------------------------------------*/
FoamFile
{
    version     2.0;
    format      ascii;
    class       surfaceScalarField;
    location    "0.95";
    object      phi;
}
// * * * * * * * * * * * * * * * * * * * * * * * * * * * * * * * * * * * * * //

dimensions      [0 3 -1 0 0 0 0];

internalField   nonuniform List<scalar> 
2805
(
4.07193e-05
-8.50791e-05
4.43606e-05
0.000131307
-9.05874e-05
1.79672e-05
-0.00208303
0.00206506
0.00502939
-0.00501142
-0.000161336
0.000292643
0.000864219
0.00416517
0.0102237
-0.0093595
0.00268388
0.00753984
0.0127343
-0.0100505
-0.00262303
0.000539996
0.00134021
0.0113941
0.011179
-0.00983875
-0.00239986
0.00302613
-0.000626271
0.00227357
0.0089054
0.0138519
-0.0108485
-0.00300339
0.00289303
0.0109588
-0.00239903
-8.35847e-07
0.0109783
-0.00870477
-9.25149e-05
7.43578e-06
-0.00048865
0.011467
-0.00156233
0.00119401
0.000368322
-0.00583265
0.0022668
0.00356585
0.00079189
-0.0016869
0.000895012
0.00607074
-0.00655939
-0.00201353
-0.00381912
-0.000722239
0.00193204
-0.0012098
0.000186327
-0.000908566
0.000762848
-0.000728367
-3.44813e-05
4.057e-05
-0.000268433
0.000227862
-0.00417824
0.00107665
0.00310159
0.00116106
-0.000369166
0.00239858
-0.00441211
-0.000201492
-3.61864e-05
0.000237678
-0.00137238
-0.00102664
0.000512046
0.000250802
-0.000600191
-0.00108671
-0.000763632
0.00316221
0.000266625
-0.000226056
0.000612811
-0.00479105
-0.000211325
-0.00182933
0.0010657
-0.000870897
-0.000691436
0.000102704
-0.000835226
0.00173024
0.00628702
-0.00160453
-0.00468249
0.00085765
-0.000438032
-0.000419618
7.79219e-05
-1.35265e-05
-6.43954e-05
-0.00489979
0.0119351
-0.00703527
-0.000227649
-5.4225e-05
0.000281874
0.000169103
0.000212708
-0.000381811
0.000178557
-0.00040107
0.000222513
0.00215524
0.00381075
-0.00154395
0.00102103
-0.00084247
0.00249835
-0.00143652
-0.00106183
-0.00211098
-1.4593e-05
0.00138724
0.00184436
-0.00045712
-0.00752758
0.00835054
-0.000822968
0.000656856
-0.00149208
0.0161778
-0.0132848
-0.000771348
0.0014282
-0.00384412
-0.00123737
0.00508149
-3.11566e-05
0.00105218
0.00802697
0.00390809
-0.0125298
-0.00435915
0.016889
-0.00171567
0.00111548
0.000589218
-0.000372429
-2.86405e-05
-0.00251006
0.00123601
0.00127406
0.00464933
0.0115285
-0.00323131
-0.00295847
0.00403513
0.000267465
-0.00322594
-0.00189707
0.000374121
0.00152294
0.016039
-0.00801205
-0.00320629
0.00347375
0.000603385
-0.00763866
-0.00114378
0.0101053
-0.00831042
-0.00179493
0.00203962
-0.00185329
0.000373925
-0.00528727
0.00491335
0.000316543
0.000877469
-0.000157131
-0.00117824
-0.000537423
0.00111599
0.00130186
-0.0121503
-5.85467e-05
-0.0019794
-0.000530659
0.00338938
-0.0159192
-0.00148727
0.00352689
0.00206032
0.00243195
0.000576216
-0.00300817
-0.00325945
0.00128005
0.000681861
-0.000713018
0.0103255
0.00571354
0.00564836
0.00445699
-0.0108481
0.00332056
-0.00334749
0.00145043
-0.000852383
0.00128395
-0.000431568
-0.00294291
-0.00721026
-0.00363788
0.00270719
-0.00419446
-0.00066376
0.00309571
-0.00623996
0.0015377
0.00470226
0.000424102
-0.00102377
0.000599668
0.0023602
-0.00302396
0.00504732
0.00330323
0.00263653
0.000890533
0.00943496
-0.000196089
0.000785307
0.000105289
0.00576041
-0.0016065
-0.00415391
0.0064562
-0.00585281
0.000820953
5.65154e-05
0.00121268
-0.00122132
0.0121801
-0.00097934
0.000298039
0.0006813
-0.00155585
-0.000307739
0.000150608
-0.000344105
0.000345014
-9.09465e-07
0.00058103
0.000290295
-0.0168399
0.0124808
-0.00306345
0.00268212
0.000381331
-0.00214928
0.0025234
0.00237506
-0.00558135
0.00244044
-0.000196614
0.000257062
-6.0448e-05
0.00832428
-0.00743375
0.00170805
0.00129992
-0.00266967
0.00136976
0.00613434
-0.000787673
0.00296114
0.000134569
0.000238463
-0.000464519
0.00893379
-0.00286305
0.000356091
0.00502408
-0.0121906
-6.92757e-06
6.92757e-06
-2.0669e-06
2.0669e-06
-0.000833819
0.0020465
-0.000146493
-5.01212e-05
-0.000703252
-0.00211149
0.00616152
-0.0011142
-0.00125025
0.000270914
-0.00693031
0.00164304
-0.000344105
-0.000237328
-0.00191195
0.000163735
0.00154432
0.00333135
0.00316863
-0.000486516
0.000322102
2.29127e-05
-0.000896087
-0.000219049
0.00854333
0.000980753
-0.00317407
0.00219332
-0.00475554
0.00314904
0.00282286
0.00221023
-0.000338676
-5.42886e-06
0.00241193
-0.00407876
0.00166683
0.00334247
0.00358824
-0.000419607
0.000132389
0.000189712
0.00443042
-0.00598628
0.00257501
-0.000520506
0.000484319
-0.000797434
0.00412878
-0.00272728
-0.00351268
0.00602775
0.0029131
-0.0011189
0.000907518
0.000211385
-0.00165396
0.00121925
5.48093e-05
7.69276e-05
-0.00116364
-0.00025728
0.00246751
0.00067335
-0.00123206
0.000558714
0.00904268
-0.010264
-0.00305258
-0.00187476
0.00492735
0.00349464
9.36059e-05
0.000126899
-0.000181124
0.000125069
-0.000138595
-0.00244539
0.00220806
-0.00228251
0.00240303
-0.000120523
-0.00300332
-0.00216036
0.0053094
0.00123192
-0.00193517
0.0067424
0.00677998
-0.00699903
0.0038715
0.00540877
-0.00191413
-0.000338676
-0.0035598
0.00427616
-0.00071636
0.000445461
-0.00156436
-0.000350366
0.000795827
-0.0023216
0.000757233
0.000235612
0.00385728
-0.000514811
0.00696381
-0.000221405
-0.00160916
-0.000123132
0.00399463
-0.00222236
-0.00022303
-0.00402344
-0.00266968
-0.000332174
-6.50148e-06
0.00317468
0.0124725
-0.0075646
-0.00490792
0.00428891
0.00111985
-0.00115677
0.00391275
0.00514095
0.00102057
0.00213944
0.00684068
-0.00382738
-0.00175397
0.00165292
0.0058941
0.00343768
0.00557204
0.00690047
0.0111727
0.00466802
-0.000391856
-0.00110386
0.00788384
-0.00189396
-0.00368829
0.00558224
0.00676134
-0.00247243
-0.00207223
-0.000249362
-6.67666e-05
-0.00136976
0.0166214
-0.0111554
-0.005466
-0.00158243
0.00596945
-0.00130143
-0.00317407
-0.011945
0.00438042
0.000450523
0.00639015
0.00540308
-0.0019654
-0.000332174
0.00127398
0.00776871
-0.00127515
-0.000334002
-0.0077679
-0.00417711
-0.00222039
-1.97015e-06
0.000588788
-0.00219332
-0.00274339
0.00941934
0.00175339
0.00862663
0.00042117
-0.00462123
-0.000595715
-0.000212529
-0.000119645
0.00513204
0.00162931
0.00265987
0.00299749
-0.00600081
0.0121068
-0.0065348
-0.00208885
0.000879049
0.00261461
-0.00295232
0.000337703
0.00244875
0.00986987
0.00254236
0.00348895
0.00450559
0.00152216
0.00433392
-0.00219677
-0.00221534
0.00115568
-0.00438162
-0.000883156
0.000191719
0.000748997
-0.00426168
0.00176104
-7.1323e-05
-0.00303731
0.000965079
-0.00451838
6.47005e-05
-0.000324413
-0.00169775
0.00202216
0.00950051
0.00712087
-0.00623525
-0.00207517
0.0106588
0.00536146
0.000607986
0.00420419
-0.00183179
-7.21276e-05
-0.000212529
-0.007766
0.0078725
-0.00274047
1.47445e-06
0.000149133
0.0050913
-0.00619516
-0.000257062
4.45329e-05
0.0012183
0.00865157
0.00133946
0.00629042
-0.00280147
-0.00257467
-0.00221638
0.00788087
-0.0025194
0.0110545
-0.00667407
-0.000325295
-0.00365119
-0.000427573
0.00628269
0.00582415
-0.00306317
0.000842788
-0.00307838
0.00451969
0.00223878
-0.0101253
0.00235742
0.00302339
0.00211756
0.00975724
0.000901549
-0.00073364
-0.000250244
0.000983883
-0.000738843
-0.000144312
-0.00802406
-0.00210126
-0.00327673
0.00121161
-0.00296642
-0.000834784
-0.00041547
0.00592599
0.00194652
-0.00112382
-0.00191655
0.00304037
-0.00400155
-0.00136511
0.00310107
0.0109755
0.00381799
0.00422093
-0.00141899
-0.00208365
-0.000953668
0.0047063
-0.00739567
0.00374448
-0.000815458
-9.31086e-05
-0.00150092
-0.00457955
0.00608047
0.000182688
-0.00243139
0.00361521
-0.00352433
0.00861563
-0.0021658
0.00721696
0.00967202
-0.00198261
0.00085879
0.0123685
0.00287451
-0.00462848
0.00583209
0.00204878
0.00867754
0.0070781
-0.00326012
0.0101814
-0.00425541
0.00190483
-0.0051892
-0.00867229
-0.00091148
-0.00290764
-0.00212379
-0.000939385
-0.00494128
0.011224
0.013699
-0.00217055
0.00755789
0.00492287
-0.00101451
0.000179727
0.00181861
-0.00171591
0.00153104
0.000135796
-0.00911663
0.00244256
-0.00375409
0.000822657
-0.00544389
-0.000116208
0.000181022
-6.48137e-05
0.00136085
0.00961468
-0.00429667
0.00101994
0.00111145
-0.000429593
0.0103373
-0.00450525
0.00971137
-0.00519168
-0.00675921
0.00136372
0.00575715
-0.000378165
0.00589946
-0.00282803
-0.00340289
0.00131924
0.0071384
0.00304299
0.00433764
-0.00770757
-0.000316496
0.0041004
0.000730821
0.00701766
-0.00574368
0.0039789
-0.000452004
-5.4809e-05
0.000345104
0.00477009
0.00822058
0.000140092
-0.00235543
-0.00327802
0.0108359
0.010421
-0.00343902
0.00220485
0.00572971
-0.00311946
-0.00776539
5.78209e-05
-0.00150711
0.00858068
0.00189005
0.00263934
-0.000711438
-0.00127117
0.00181299
0.00525826
0.00441376
0.0112918
-0.00695419
0.00247943
-0.00160038
-0.00276755
0.00293544
-0.00645977
0.0100096
6.23617e-05
-0.000208855
0.00273948
-0.00581786
-0.00301058
0.000886792
-0.00124713
0.000132389
0.00155911
0.00711844
-0.00546375
-0.00264732
0.00811107
0.0101811
0.000763526
0.00601224
0.0043251
-0.00135983
0.000648396
0.011139
-0.00977815
0.0090295
0.0136084
-0.00646998
0.00466582
-0.00164243
-0.00144546
-0.00478979
-0.00777899
0.00258731
-0.000300396
0.00125022
-0.000949819
0.0130502
-0.00533643
-0.00220515
-0.00119773
-0.00753892
-0.0029113
0.00126492
-0.00164308
-0.00641536
-0.000343847
0.00182215
-0.00582369
-0.0048097
0.00259332
-0.000507243
-0.00232079
0.00377456
0.000731028
0.00731626
-0.00602501
0.00482539
-5.85199e-05
-0.000452523
0.000511043
0.00703642
0.00332256
-0.00673186
-0.000308274
0.000518151
-0.000209877
0.0020753
-0.00109051
-0.00278176
0.00289823
-0.00100818
0.00501335
-0.000285235
-0.000142337
0.00978137
0.00105454
0.0126763
-0.00666402
-0.001889
0.00279688
0.00462042
0.00396025
-0.00204342
-0.00177841
0.00695986
-0.00440912
0.00734455
0.00129785
0.00340486
-0.00454917
-0.00321622
0.00784331
-0.00307322
-0.000254657
0.000196137
0.0101398
0.000281176
0.00135143
-0.00654064
0.000135522
-0.00290307
-0.000703593
-0.000661521
1.62572e-05
-0.00205307
-0.000957514
0.00903418
0.00849622
0.00168491
0.00822648
0.0053819
0.0107269
-0.00642705
0.00208679
-0.00132326
-0.000236037
-0.0011238
0.0028797
-0.00429869
-0.00719649
-0.00308842
0.000883271
-0.00409246
-0.00516547
0.00193416
0.00243706
0.00870195
-0.000139899
0.00992127
0.00948714
0.000522451
-0.00758213
0.0146186
0.00600424
0.00955076
-0.00218527
0.000443708
0.00294595
0.000376609
0.00389957
0.00311809
0.00285606
0.00196933
-0.00437301
-0.000452586
0.00358708
-0.00068856
0.00369067
-0.00495483
-0.000381605
-0.00193257
-0.00560635
0.00999992
0.00377756
0.0035387
0.00193776
-0.00576989
-0.00162578
-0.00529868
0.00579988
-0.00397949
0.00149351
-0.00258402
-0.00291214
0.000545105
0.00412071
0.00576317
-0.00317586
0.00216372
-0.000865872
-6.94849e-05
-0.00170893
-0.00319916
-0.0035327
0.00356553
-0.00700456
-0.00672237
0.00773781
0.00565843
0.00720524
0.00182894
0.00889015
-0.00140956
0.00331175
0.00314474
0.00976832
0.000634578
-0.000438441
0.00268995
0.00154342
-0.00756844
-0.00641538
0.00870143
0.00536053
0.00368098
-0.00518809
-0.00132113
-0.000170952
0.000840455
0.0164408
-0.00821436
1.98188e-05
-3.56158e-06
0.00962761
-0.00719055
-0.00119328
-0.000805375
-0.000372869
-0.00280824
0.000755177
-0.000538567
0.0100893
0.00814857
-0.000851196
-0.00223723
0.00229837
-0.00185467
0.00042289
-0.00260816
-0.00727016
0.00150027
-0.000941068
-0.00020271
-0.00225233
-0.00107832
-0.00611817
0.00181992
0.00176717
-0.00340873
-0.00140097
-0.00366188
0.00242451
-0.0010943
0.0110156
-0.0070281
0.00261898
0.00219653
0.00292979
0.00307445
0.00829116
0.000318885
-0.00100744
0.00186681
7.09547e-05
-0.00110577
-0.0012442
0.000301577
-7.90634e-05
0.000466922
-0.00209271
-0.00257215
-0.000285646
0.000654397
0.00127627
0.00646849
-0.00295955
0.000712793
-0.00499721
0.012234
-0.000529027
-0.00128604
-0.00668467
0.0029899
0.00100094
0.00611203
0.00162578
0.00475726
-0.00664626
0.00904368
-0.000153535
-0.000655381
-0.000508257
-0.00202535
-0.00145831
-0.00384037
-0.000761159
0.0010592
0.0015627
-0.00297225
0.00764614
0.00235377
0.0127594
0.00794098
0.000538933
0.00051325
-0.00111202
0.0027933
-0.00317491
-0.00123132
0.000216808
0.00175823
-0.0084806
-0.00492781
0.0022418
-0.00140135
-0.000119556
-0.000135795
6.4472e-05
0.00084051
-0.000281773
-0.00499101
0.00850511
-0.00468336
-0.00114033
0.00899503
-0.000489035
0.000485473
0.000705304
0.000406151
-0.000382556
0.00906949
0.00737135
-0.00432891
0.000667024
0.000191694
-0.00138498
0.0109295
0.00350724
0.00424399
-0.00833645
0.00159186
-0.000879072
-0.0011726
-5.87184e-05
0.000387138
5.62024e-05
-0.00102825
0.000811409
-0.00518442
-0.00104546
0.0017411
0.00927447
0.00618202
-0.00170761
-0.00110063
-0.000421927
0.000935177
-0.00338674
0.00581125
0.000392218
-0.0068076
-0.00581021
0.00218353
0.00252382
-0.00280947
-0.00985005
0.0179986
-0.000617709
-0.000795713
-0.000448489
0.00938725
0.00783234
-0.000236038
-0.000869734
0.00690993
0.00285839
0.0010238
0.00117272
0.00089888
-0.000309308
-0.00081575
0.000283377
0.00109476
0.000181687
-0.000148776
0.00191594
-0.00572595
0.00519201
0.00520489
0.0012636
0.000733021
-0.00201906
0.00190974
-0.000908798
0.00364127
-0.00309616
0.00302347
-0.000333516
-0.000448429
0.00410795
-0.000208381
0.00284112
0.00124046
-0.00058606
0.00683067
0.0115639
-0.00130397
0.00797799
-3.70113e-05
-0.000596141
0.00108161
-0.00276056
0.000508387
-0.000997197
0.000109379
-0.00107531
-3.67102e-05
-0.000430834
0.0025277
-0.00921237
0.00782446
-0.00239475
0.0028298
-0.00244266
0.0092637
0.000768903
-0.000888459
-0.000651955
0.00150208
-0.00254754
0.00477195
-0.00976916
-0.000766683
0.000314097
0.00307967
-0.0059529
0.00290937
0.00518313
0.00310803
-0.000446673
0.000164899
-0.000148498
-0.000879753
-0.000831655
-0.00300871
-0.00400656
-0.00283058
0.012105
0.0113119
-0.00231691
2.03314e-05
0.00978427
0.0103014
-0.0017963
0.00033218
-0.000247415
-8.47643e-05
0.00270099
-0.007692
-0.0015238
-0.00658177
-0.00684971
0.0100674
0.00129789
-0.000203136
0.000644317
9.35413e-05
-0.000476098
-0.00101823
0.00555546
-0.00780779
-0.000516981
0.0023892
-0.00283763
0.00534115
-0.0111514
-0.000458847
0.000149539
0.000148767
0.00102396
-0.00223667
0.000675105
0.000165405
0.00206471
0.00459901
0.000592995
0.000389095
-0.00410661
0.000458109
-0.00127386
0.000182843
-0.000483383
0.00586261
0.000142552
0.000189627
0.00257249
-0.00206411
0.00708704
-0.000256372
0.00049226
0.000589354
-0.000239975
-0.00010012
0.000101594
-0.0010908
0.00547754
0.00390971
-0.0035645
-0.000320782
-0.000983188
0.00804152
-0.000345104
1.98086e-05
0.000835754
9.94228e-05
-0.0024428
0.000735186
0.00442609
-0.010152
0.00705003
-0.00141267
-0.00263054
0.00327026
-0.00063972
-0.000158339
0.00848137
0.000129831
0.0079845
0.0011987
0.00343182
0.00867322
3.34136e-05
0.000840004
0.00924838
-0.00142393
-0.00442801
5.06046e-05
-0.000127612
7.70074e-05
0.000228622
-0.000135796
-6.54138e-06
0.000904831
-0.00155679
-0.00120053
-0.00043035
-0.00478627
0.00289612
-0.00287579
-0.000532229
0.0041735
0.0116113
0.00601728
-0.00385569
-0.00216159
0.00705867
-0.0062196
0.00481863
0.00100116
0.000172393
-0.000110031
0.00890936
0.00539336
-0.00592239
0.00745208
0.00553792
-0.00142997
0.00628199
-0.0122349
5.84978e-05
0.000407906
-0.00142614
0.00186995
-0.00148085
0.00146831
-0.00198529
-0.000748432
-0.000775367
0.000336304
0.000687652
0.00475701
0.00450669
0.000133168
-0.00202435
-6.83579e-05
0.00643007
-0.000567459
-0.0014815
0.0051337
-0.00814241
-0.000369029
-0.000194159
-0.00173162
0.00471371
-0.00102306
0.00661636
-0.00937693
-0.00925603
0.0190403
-0.00174769
0.00402587
0.00577625
-0.00639396
0.00622612
0.00155143
0.000513278
0.00337027
-0.00384637
-0.00145891
-0.00100476
0.00151887
-0.000929519
-0.000636294
0.0061737
0.00224082
-0.00239916
-0.00486936
-0.0025583
1.49331e-05
0.000717248
-0.000732181
0.00275013
0.00141719
-0.000772869
-0.000850934
0.00288282
-0.00275299
-0.00626825
0.0036961
0.00758924
-0.0111537
0.00287129
-0.00318866
0.00866672
0.0083215
-0.00127148
-8.84749e-05
0.00599682
-0.00642765
0.00740681
-0.0115134
-0.00348326
-5.06046e-05
0.000456755
0.00111775
-0.000934906
-8.78807e-05
-0.00111265
0.00359538
0.00507784
-0.0003887
-9.46829e-05
7.02568e-06
-8.10889e-05
0.000762389
-0.000753782
0.000787195
0.01443
-0.00258691
0.00234693
-0.00116407
-0.00292979
0.0109143
-0.00274523
0.000255528
0.0121449
-0.00366349
0.00689757
-0.00151402
0.00313832
0.0049032
0.0086865
-0.0131145
0.000820546
-0.0012509
0.00092556
-0.000792392
0.00278586
-0.00272737
-0.000555295
-0.00119142
-0.00445199
0.00804737
0.00829344
-0.0130797
0.000260431
-0.000260431
0.00884426
-0.000456756
0.000740132
0.000834839
-0.000147187
0.00230651
-0.00250067
7.35042e-05
0.000929347
0.000589525
0.00134812
0.000386705
0.00330888
0.00560047
0.000487667
0.00235529
0.00974397
-0.00229188
-0.000618071
-0.00111355
-0.00178769
0.00764501
0.00544579
-0.000732077
0.000175566
0.000905684
-0.00127471
0.000952186
-0.000112182
0.00724886
-0.00833966
0.00769287
0.000284382
0.00487833
0.0055852
-0.000191835
-0.00159359
0.000570527
0.00731917
-0.00114547
0.000857503
-0.000446479
-0.00173072
-0.000787953
-0.00394144
0.000344879
0.00116274
-0.00147292
0.000310182
0.00126443
-0.0013529
-0.000634405
-0.00246725
0.00110402
-1.98086e-05
-3.87381e-05
-0.000346033
-0.00522262
0.00282787
-0.00011436
0.00838672
-0.000146136
0.00166446
-0.00219669
0.00297607
-0.00296904
0.00604769
0.000139485
0.00681418
0.0072508
0.00194059
-0.00168506
0.00995792
-0.0148273
7.21276e-05
-0.000172248
0.00467484
0.000863083
0.00727123
-0.00790752
-0.00087118
0.00979509
-0.0123534
0.00251052
0.00615621
-0.000806394
0.00108891
0.00513721
-0.000488401
-0.00102562
-0.000397144
-0.000345212
0.0011641
-0.000162942
0.00157418
-0.00212948
0.000248701
-0.00578619
0.00193982
-0.000260968
-0.000903098
0.000122653
-0.00026984
-0.00343926
-0.000669739
-0.00144962
-0.00171833
-0.000475968
0.000475968
0.00105192
0.00873893
-0.00184135
-0.00137452
-0.000926487
-1.02855e-05
0.00825044
-0.00944186
0.000821207
0.00599211
0.002485
-0.0020983
0.000125683
-4.59514e-05
-7.97312e-05
0.0113973
-0.0141425
-0.00127635
-0.00315659
0.0019784
-0.000630283
0.000587689
0.00811099
0.00273862
-0.0031851
-0.000761433
0.00135096
0.00581555
-0.000937224
-0.00185066
0.00186866
0.00617871
0.00140719
-0.00091952
0.00163237
0.00644704
0.00924815
-0.0110358
0.000156321
-0.000632288
-0.00168244
-0.000827537
-0.000740132
0.000839555
0.00344142
0.000799938
0.00467008
-0.000970914
-0.000759811
0.0010164
0.00662861
-0.000581071
0.000756637
-0.000230421
0.00151949
-0.00117461
0.012018
-0.00432512
-0.000902397
-0.00199653
0.0012868
0.00709992
0.000318888
-0.000387246
0.0113158
-0.0152572
0.00151605
-0.00163041
-0.00661625
0.0135167
0.00132055
-0.000463045
0.00729448
-0.00124678
0.00495922
0.00277352
-0.00252482
0.00121001
-0.00187975
0.00041745
0.0105235
-0.0129908
0.00100294
-0.00134816
-8.9217e-05
-0.000919465
0.00370724
-0.00152652
0.0018612
-0.00019674
0.000319715
-0.000589554
0.0106885
-0.0034377
0.000460371
0.00717261
-0.000310568
-0.00136936
0.000562962
0.0010749
-0.00108518
0.00233655
-0.00326304
0.00941914
-0.00260496
0.000675227
0.00122619
-0.00338778
-0.00457389
0.00138523
0.000645752
0.00149642
0.00545312
-0.00351151
0.0015354
-0.000947715
0.000599971
-0.000193715
0.000742822
0.000608137
0.00524459
0.00677339
0.00711325
-0.000172331
-0.000848548
-0.000526557
-0.000847961
0.000161751
0.00746551
0.000341437
-0.00104204
0.00703415
0.00748404
0.0111462
-0.0120174
-0.000132799
0.00135899
0.00183169
-0.00103175
-0.00128637
0.000266314
0.00784468
0.00410234
-0.000660923
-0.00120716
0.0136266
-0.0153449
0.00316512
-0.000564324
-0.000627465
0.00283482
-0.00306524
0.00923214
-0.00729231
-0.00653114
0.00739423
0.00132461
0.000387331
-0.000512299
0.0120312
-0.0151878
0.00538142
-0.000711331
-0.000273258
0.00823528
-0.00178824
-0.000292711
-5.22227e-05
0.000233909
-0.000612718
-0.000515947
0.00636338
0.00141478
-0.000362865
0.000951739
0.000450221
0.000924653
-0.000212998
0.000309993
-0.00137963
0.000477228
0.00558657
-0.00632617
0.00598144
0.00736624
0.00219976
-0.00311922
0.0138911
-0.0155736
0.00129145
-0.001881
-0.000588304
0.00413463
0.000883972
-0.00791021
0.00447095
-0.00121068
-0.000785855
0.00194276
-0.00126754
0.00428554
0.0163944
-0.00106328
-0.00295099
0.00563032
-0.000610032
0.00125578
0.000117662
-0.000428231
-0.000816664
0.0012299
-0.000629928
-0.00174602
-0.00138301
-0.000959578
-0.00353631
0.00724355
0.00275929
-0.00360784
-0.00136608
0.000905604
-0.000488154
-0.00125227
0.00842488
5.76434e-05
0.000911014
0.00140941
-0.00106797
-0.000446662
0.00654064
-0.00108752
-0.000839555
0.000676613
-0.000254494
0.00772
0.000178023
-0.000805488
-0.000305949
0.00735915
-0.00755098
0.00306079
0.000104328
0.00021119
-0.000484448
0.000111811
-1.02167e-05
0.00110693
-0.00137459
0.000267658
-0.000563587
0.00117172
0.0133797
-0.0168912
0.00120028
0.0065924
0.000212382
-0.000409121
0.00109411
-0.000643887
0.006444
0.000669249
0.00755098
-0.00769712
-0.00735915
0.00672474
0.00192769
-0.00161769
0.00234946
0.00349784
0.0047524
-0.00061193
-0.000674437
0.000619868
0.00138808
-0.000504111
-3.31892e-05
0.00019494
-0.00809426
0.00769712
0.00243117
-0.00301947
0.000557205
-0.000233847
-0.000323358
-0.000954265
0.000341547
-0.00152725
-0.000353755
0.0112299
-0.00445647
-0.000688054
-0.00139779
0.00984532
-0.00348194
5.06046e-05
0.00141712
0.00066015
0.0124136
-0.011089
0.000779478
0.00270045
-0.00376373
-0.00195548
-0.000897364
-0.00153702
0.00890326
0.000396156
0.0146018
-0.0158089
-0.0014748
0.00423577
-0.000101137
-0.000889947
-0.00727306
-0.00180812
0.0061895
0.00849807
-0.00251663
-0.00330315
0.00888972
-0.000594297
0.000692197
-0.000907386
-0.000743092
0.0152873
-0.0158033
-0.00117292
0.000684768
0.00060966
0.00618298
-0.000221184
-0.00125874
0.000442074
0.00122361
-0.000312601
0.00727306
-0.00736227
0.00205714
-0.00236309
0.000744196
-0.00672474
0.00527513
5.39215e-05
-8.31768e-05
2.92553e-05
0.00314825
-0.00028626
0.00512174
-0.00532694
0.00599619
0.000712404
-0.0111144
0.00382207
3.41103e-05
0.00720247
-0.00157215
0.000508239
-0.000721237
0.000540679
0.000659601
-0.00023428
0.00736227
-0.00755599
0.000439448
-5.39215e-05
0.000135795
-8.18735e-05
0.000508606
-0.000450963
0.000645007
0.0148832
-0.0162493
0.000719502
-0.00664343
0.000329825
0.000841899
-0.000987455
-0.000165831
0.00590292
0.000897053
0.00145241
-0.00330467
-8.31144e-05
0.00501669
0.00538884
0.00501614
-0.00091719
-0.00325853
0.00985093
0.000524765
-0.00151599
0.00110687
-0.000604536
0.0012244
-0.000676613
0.000313748
0.000684534
-2.43835e-05
0.00271838
-0.00307213
0.00280973
-0.00349778
0.00755599
-0.00806829
-0.000885783
0.00166526
-0.000301096
-0.00191944
0.00374861
-0.00527513
-0.00170436
0.00789387
0.000104373
6.80198e-05
-0.000953997
-0.0013715
0.000481549
-0.00124693
0.000349565
0.00468585
-0.00577442
0.00927225
0.000795916
0.000676537
1.56599e-05
0.00534647
-0.000594065
-0.00139568
0.00080138
0.0020863
-0.00299369
6.55313e-05
6.01513e-05
-0.002008
0.00643677
-0.000440576
-0.00037476
0.00098442
0.00987898
-0.00248475
-0.00088794
-0.000509845
0.00564473
-0.00147677
0.000266665
-0.00314892
0.0093319
0.000371933
0.0152124
-0.0148162
-1.98086e-05
-0.00178108
-0.000174395
-0.000276785
-0.000546998
0.00129119
0.000120994
0.0031153
-0.00085383
-0.000804855
0.00806829
-0.00902787
-0.000596554
0.000427188
1.22599e-05
-0.00201536
-0.0140723
0.00298339
0.00473241
-0.00513775
0.00469717
0.00474494
4.02967e-05
0.000801602
0.00377432
7.20007e-05
0.00692798
0.0100345
-0.00413153
0.00235767
0.000790581
-0.000924741
0.000473778
-0.000239972
-0.00546837
0.0105901
-0.00119291
0.00191241
-0.00201746
0.00266247
0.000338621
-6.54132e-06
-0.000856386
0.000293766
0.00489671
-0.000914129
0.00708048
-0.00206435
0.00200259
0.0158072
-0.0165502
0.000166581
-0.00029938
6.0448e-05
4.39254e-05
-0.000565057
0.00850274
-0.0031139
0.00042662
-8.08338e-05
0.000402804
-0.000836154
0.000659547
0.000176607
0.000496286
-0.00148374
0.000437422
5.59564e-05
-0.0102503
0.00298546
-0.00328655
3.89938e-06
0.000140104
-0.000305935
-0.00142964
0.00051245
0.0167364
-0.0170227
0.0021393
-0.0030933
0.00438256
-0.000512328
0.000984461
-0.000459696
-0.000369741
-0.000319128
0.00103638
0.00571944
-0.00103359
0.00640837
-0.0017112
-0.000313748
9.25644e-05
0.0043712
0.00902787
-0.010836
-0.00290756
-0.000164571
-0.00490767
0.0105524
-0.00228644
0.00308236
-0.000854392
0.00857209
-0.00367538
9.82853e-05
0.00396659
-1.90643e-05
8.45956e-05
0.0017636
-0.000486589
-0.00305949
0.0077919
0.00442424
0.00319485
-0.00208799
-0.00181124
0.00218318
-0.00308196
5.89775e-06
-0.000282683
4.89555e-05
-0.00864714
0.00935955
0.00677591
-0.00240471
0.000487162
0.00365509
0.000534306
0.000267296
-0.00450711
0.00925205
0.00356193
-0.00057586
1.81575e-05
-0.0160939
0.00127771
-0.000836119
-0.0011329
0.000328045
0.0050694
0.00350269
-0.00149586
-0.00015684
-7.70074e-05
0.00334888
0.00524953
-0.00128295
0.00310054
0.000101167
-0.00407804
0.00322166
0.00335819
-0.0131106
-0.000933353
0.00370802
6.62954e-05
0.000625112
-0.00049928
-0.00141557
0.00117949
0.000927204
0.0163267
-0.0169232
7.33744e-05
-0.00805235
0.0111677
-0.00727306
-0.000155983
7.46104e-05
-0.00308515
0.00658784
-0.00526881
0.00470376
0.00284482
0.000227368
0.00267443
-0.00205818
0.00246098
0.00328479
-0.0130057
0.00636232
0.00451641
-0.00141587
-0.00630981
0.010734
-0.012844
0.010836
5.39215e-05
-0.00056259
0.000256654
0.000107964
-4.78123e-05
0.00143126
-8.88116e-05
0.00226984
-0.00278216
-0.00708297
0.0114655
-0.0031997
-8.68536e-05
0.00377352
-0.000118423
0.00346943
-0.00218646
-0.0051572
0.00306921
-0.00527513
0.00253775
0.00294225
-2.209e-05
0.000130054
-0.00336427
-0.00062045
-0.000823461
0.00196905
-0.00191309
-0.000665716
0.000179127
0.00191309
-0.00184109
0.000197062
0.00156654
-9.25644e-05
-0.000147408
9.47398e-05
3.11217e-05
-0.000330502
0.00184109
-0.00150247
-0.0118084
0.00932369
-4.39254e-05
9.28809e-05
0.00249057
-3.80928e-06
-0.000850583
-0.00200259
8.31486e-05
0.00150247
-0.0012087
0.00292076
-7.59367e-05
0.0012087
-0.00212283
-0.000223595
0.000172248
-2.025e-05
-0.000151998
0.00212283
-0.00169621
0.000125001
0.000160546
-4.87353e-05
0.00150489
0.00484388
0.00174396
0.00169621
-0.00125879
0.00402847
-0.00284898
-0.0003489
-2.08414e-05
0.000263358
0.000946514
-0.00308955
0.00644775
-0.000286493
-0.00641123
0.00969601
-0.00464692
0.00315106
-0.00173988
0.000740808
0.000999076
-0.00658293
0.00516736
-0.00196905
0.00223634
0.00800386
-0.00465497
-5.19927e-05
0.00167186
0.00100257
0.0169559
-0.0156781
-0.00193554
-0.000275525
-0.00126539
6.25056e-05
0.00125879
-0.0011605
-0.00607776
0.00581754
-0.0160678
-0.00187918
-0.00242327
0.00244143
0.00155344
-0.000337671
0.00126977
0.0012208
-0.00308038
3.26454e-05
-0.00850716
0.0119766
-0.000202631
0.000109182
9.34489e-05
0.00192474
-0.000493477
0.017089
-0.0170852
0.00119383
-0.00843194
0.0113742
0.00222688
-0.00627172
0.00408527
-0.00223634
0.00231095
0.00528196
-0.00221275
0.00258418
-0.00267104
-0.00231095
0.00181167
-0.00144385
0.00170721
-0.00244889
-0.0123568
0.00175432
-0.0177443
0.00463373
0.0095492
0.00191634
0.0011605
-0.00105934
0.00159263
0.00382908
-0.00288257
-0.000197981
-0.00181167
0.000878319
-0.00664298
0.00470744
3.77089e-05
0.00179277
-0.00312066
0.00243298
6.63467e-05
0.000464816
-0.010836
0.0114611
-0.00147561
0.00126407
-2.39164e-05
0.000118656
0.0120869
-0.000134627
0.00011071
0.000331634
-2.3504e-05
-0.000441279
0.0036687
0.000493477
0.00101142
-2.29636e-05
-0.000800497
-9.28809e-05
0.000155386
-0.00584962
0.00363687
-0.000548218
0.00210165
-4.57328e-06
0.000147408
-0.00023622
2.39287e-05
-0.000599789
-0.00626286
0.00438368
-0.0119267
-0.0097055
3.78224e-05
-0.0175844
0.00190628
-0.0129507
-0.000878319
0.000257869
-0.00482725
0.00174687
0.000112801
0.000143853
-0.00533858
0.00386297
0.00453237
-0.00209939
0.000672583
-0.00114218
-0.000873547
9.19595e-05
-0.0169873
0.0167637
0.00105934
-0.000934335
-0.00217759
0.0016498
-0.0173266
0.0173593
0.00299589
-0.00253107
0.000216365
-0.000178543
-0.0106881
0.012915
-8.31486e-05
3.11558e-05
-0.00460803
0.00148737
-0.000954905
-0.0108252
0.0127416
-0.00312004
-0.00101141
0.00220525
-0.00398451
0.00284233
0.017778
-0.0158718
-0.000257869
-7.98023e-05
0.000324854
-0.000881095
-0.000121538
0.00115135
-0.00235737
0.00207088
0.00449001
-0.000853142
0.000686037
-8.67325e-05
-0.000634505
0.000172248
0.000604825
-0.000802806
-0.00217233
0.00173106
-0.00331768
0.00114009
0.00880843
-0.00721579
0.00239062
-0.000155387
0.000150813
-0.0036687
0.00542302
0.00333643
-0.00168663
0.000449957
-0.00140486
-0.00542302
0.00721579
7.98023e-05
-0.000103306
-0.00028579
1.02642e-05
-0.000114136
-0.00880843
0.0100725
-0.00286116
0.000451404
-0.00257488
0.00172174
2.18854e-05
-0.000143424
0.00510708
-0.0180578
0.000805359
-7.06811e-05
-0.00183031
0.012113
-2.60473e-05
0.000934335
-0.000896626
0.000267446
8.4059e-05
-0.000493477
-0.00220525
0.00287783
0.000371985
0.0124446
0.000471842
-0.000264777
-0.0055529
0.0148766
-0.0174242
0.00155242
0.0014099
-0.00108504
-0.0138133
0.0113644
0.00294502
-0.000554402
-0.0164922
0.0109393
-0.0123171
-0.000195673
0.000103306
-0.00015467
5.13634e-05
0.00737186
-0.0192986
-0.00235219
2.02535e-05
0.00010074
-3.11558e-05
-8.29806e-05
-0.0106859
0.00125838
0.000922556
-0.00065511
-0.00183669
0.00157192
-0.00170579
-0.000124519
0.00023622
-9.23663e-05
0.0123568
-0.0122905
0.000779133
-0.0147206
0.0123684
-0.0131329
0.0131069
0.00149754
-0.000692178
-0.00794674
-0.0113519
0.00207736
-0.00160552
-0.0100725
0.0107585
0.00060709
-0.0123568
-0.000321439
-0.00336052
0.000240477
0.0122399
-0.0117885
0.00134401
0.000377732
-0.0176522
-0.0019893
0.00111575
-0.000391366
-0.000870008
-0.00199116
-0.0126362
0.0137876
0.000190325
-7.96149e-05
-0.00512774
0.000789604
-0.016911
0.0117833
0.000240664
-0.000133872
0.00104773
0.000210651
-0.00287783
0.00280715
-0.00227599
-0.00879883
-0.00885341
0.0117885
-0.0102361
0.000412496
0.00194401
-0.00116488
0.00125698
-0.000879249
0.000278794
0.000601872
-0.0122399
0.0126119
0.00129865
-0.00149432