/*--------------------------------*- C++ -*----------------------------------*\
  =========                 |
  \\      /  F ield         | OpenFOAM: The Open Source CFD Toolbox
   \\    /   O peration     | Website:  https://openfoam.org
    \\  /    A nd           | Version:  8
     \\/     M anipulation  |
\*---------------------------------------------------------------------------*/
FoamFile
{
    version     2.0;
    format      ascii;
    class       volVectorField;
    location    "0.95";
    object      U;
}
// * * * * * * * * * * * * * * * * * * * * * * * * * * * * * * * * * * * * * //

dimensions      [0 1 -1 0 0 0 0];

internalField   nonuniform List<vector> 
1924
(
(0.0750884 0.027557 2.15153e-17)
(0.0560921 0.047646 2.30423e-17)
(1.29676 0.779234 2.25231e-17)
(2.09616 1.43056 1.99236e-17)
(0.186958 -0.12598 2.14724e-17)
(2.91246 2.05377 2.36252e-17)
(4.84187 3.57067 2.422e-17)
(4.9454 3.97378 2.37353e-17)
(5.76054 4.61326 1.3261e-17)
(1.03085 0.7325 2.22246e-17)
(5.92239 4.98736 1.09523e-17)
(5.59333 4.37516 1.9758e-18)
(-1.23506 0.146956 7.29339e-18)
(5.54467 4.68066 -1.68875e-18)
(2.61055 4.91628 1.71695e-17)
(2.24165 5.34007 1.60554e-17)
(-1.20473 -0.080493 8.1733e-18)
(4.91729 3.7906 1.10886e-17)
(0.0143745 0.0089061 2.15329e-17)
(4.77642 3.77895 1.34593e-17)
(-0.525854 -0.0658449 4.18167e-18)
(-2.09249 -1.0764 1.05102e-17)
(-0.712886 -0.129613 6.85019e-18)
(4.36534 2.80938 2.1731e-17)
(-1.90784 -1.2003 9.84653e-18)
(0.14285 -0.822853 1.84966e-17)
(0.394328 -0.014688 2.26265e-17)
(0.332998 0.104781 2.32735e-17)
(-0.167459 -0.101408 1.44755e-17)
(1.93432 -0.0693757 -4.67384e-18)
(-0.732108 -0.0980546 6.71254e-18)
(-1.38107 -1.15205 1.31491e-17)
(0.168583 -0.00170268 1.63123e-17)
(-0.868187 0.0334656 6.7216e-18)
(0.35343 0.0737239 2.95663e-17)
(-0.679501 -0.16535 6.54339e-18)
(-1.16441 -0.644874 1.5242e-17)
(-0.156249 -0.214634 1.74699e-17)
(1.65716 -0.887669 -5.54681e-19)
(-0.836103 -0.107986 7.59143e-18)
(-0.527934 -0.468452 1.88456e-17)
(-0.716307 -0.162767 6.47246e-18)
(-0.00459006 -0.770221 1.78687e-17)
(-0.860277 0.0062472 7.03679e-18)
(3.09658 2.01954 3.19194e-17)
(-0.124568 0.544116 1.06869e-17)
(0.0476909 -0.00726866 2.01832e-17)
(3.24857 4.78656 1.68627e-17)
(0.155219 0.0019145 1.48019e-18)
(0.0494728 -0.0755051 1.11146e-18)
(0.156456 -0.0680641 -3.46962e-18)
(-1.2203 0.0911499 7.05856e-18)
(-1.77538 -0.978222 9.30279e-18)
(0.569014 -0.332041 3.3974e-18)
(-0.363804 1.23832 8.54644e-18)
(1.18476 0.911858 2.15843e-17)
(0.0586994 -0.0195809 2.1432e-17)
(1.19877 1.83662 1.60154e-17)
(0.57573 0.543013 9.49273e-18)
(3.54901 2.50473 2.01942e-17)
(-0.956863 0.0633699 7.1785e-18)
(2.87429 6.02381 9.80126e-18)
(-0.910078 0.118948 6.9247e-18)
(2.29279 -0.0424286 -1.16889e-17)
(0.538794 -0.241247 4.54872e-18)
(3.1006 4.69843 1.76565e-17)
(3.55542 5.598 1.25121e-17)
(-0.651172 -0.123138 7.52837e-18)
(-0.226781 0.202701 1.13379e-17)
(-0.127681 -0.156222 4.98983e-18)
(-0.921804 0.575519 9.19342e-18)
(2.59603 5.93257 7.6253e-18)
(1.87966 -0.651998 -5.26135e-18)
(1.99915 -0.109863 -3.08727e-18)
(1.58755 -0.865104 5.31954e-18)
(-1.07774 1.31721 1.07149e-17)
(4.4735 5.40235 1.02648e-17)
(1.82029 -0.883498 9.4723e-18)
(4.52438 4.91417 1.35449e-17)
(-0.71499 0.118062 6.91377e-18)
(3.49912 -0.751829 1.76445e-17)
(0.922819 0.631104 2.49113e-17)
(3.09568 4.07894 1.02742e-17)
(-0.725352 0.224973 6.29685e-18)
(-0.00966512 0.137204 1.74994e-17)
(-0.707405 2.0355e-05 7.8234e-18)
(0.664571 0.430197 1.35874e-17)
(3.42492 5.03885 1.59018e-17)
(0.0753098 -0.0650269 2.50372e-18)
(-0.957165 0.51878 7.93443e-18)
(4.38218 5.58128 1.73899e-17)
(1.6167 0.0995474 2.29142e-17)
(-0.475272 1.19779 8.91137e-18)
(-0.380628 1.95692 1.44665e-17)
(-1.34048 0.844181 7.35678e-18)
(0.493565 -0.271761 5.49092e-18)
(5.12333 5.42374 1.31966e-17)
(3.70284 -0.0254459 2.00973e-17)
(3.47777 2.29691 2.25101e-17)
(-1.23725 1.05962 9.64117e-18)
(0.890585 0.424359 2.33075e-17)
(-1.35999 0.414801 6.25165e-18)
(3.43186 2.75265 2.52165e-17)
(2.30132 0.979002 2.02368e-17)
(-0.396994 1.93595 1.54557e-17)
(2.31677 -0.9739 1.72675e-17)
(0.434531 0.969281 1.33132e-17)
(-0.456121 1.92428 1.39033e-17)
(3.02232 1.84256 2.24823e-17)
(-0.346999 1.60132 1.11996e-17)
(6.30832 6.01523 1.37799e-17)
(-0.0796783 0.667133 1.07781e-17)
(-0.303942 -0.0296852 2.13003e-17)
(3.45401 2.55561 9.78119e-18)
(3.84711 3.9826 3.04947e-18)
(-0.301387 0.125568 5.87166e-18)
(1.19214 0.535533 2.31579e-17)
(1.3654 5.06609 1.7186e-17)
(-0.378818 0.281024 7.95016e-18)
(4.8857 4.07938 6.69972e-19)
(-0.166972 0.069329 1.93806e-17)
(0.124951 0.000195064 4.21493e-19)
(0.262941 -0.302295 -5.46813e-18)
(-0.359969 0.162624 6.87464e-18)
(2.9865 6.12598 6.86836e-18)
(-0.240131 1.93984 1.7485e-17)
(-1.24404 1.57159 1.11193e-17)
(1.70975 -1.31495 1.41833e-17)
(-0.195185 1.41876 1.09306e-17)
(0.0700259 -0.0598855 -1.7431e-19)
(5.05838 3.83571 9.44952e-19)
(0.721083 0.723622 1.94162e-17)
(-1.20548 2.39502 1.15288e-17)
(3.70775 3.3815 1.29565e-17)
(-1.58818 0.151404 8.3201e-18)
(-0.201702 2.02248 1.50363e-17)
(0.177848 -0.0205714 1.98159e-17)
(0.0993335 0.349224 1.39665e-17)
(4.25834 2.86087 2.1132e-17)
(0.0501975 -0.129416 3.13364e-17)
(1.40523 1.3192 1.4349e-17)
(3.4262 6.36472 8.45589e-18)
(-0.279378 -0.433565 2.30828e-17)
(0.163125 -0.179377 4.0539e-18)
(1.44133 0.897703 2.06998e-17)
(0.0614772 -0.0768303 -5.55156e-19)
(-0.348648 1.85398 1.57164e-17)
(-1.35719 0.934894 1.00883e-17)
(2.50137 2.00207 2.14225e-17)
(-0.307938 0.432468 6.14336e-18)
(1.87958 2.73132 4.20742e-18)
(0.109498 2.89692e-05 6.33475e-19)
(-1.46442 1.51887 7.65158e-18)
(0.942513 1.3183 1.82457e-17)
(2.31014 1.63066 2.09525e-17)
(-0.292153 1.84473 2.02222e-17)
(0.12023 0.0136565 9.86885e-20)
(0.563298 0.114305 2.37798e-17)
(5.17829 3.82443 -1.82375e-18)
(1.77389 2.97859 -1.0041e-17)
(2.88686 1.76233 -2.29585e-18)
(-1.08184 1.76544 1.13197e-17)
(1.12804 1.0345 2.10129e-17)
(0.131319 -0.00327246 9.32324e-19)
(1.44054 0.992549 -9.5768e-18)
(-0.189629 2.05146 1.60433e-17)
(0.120357 2.05162 2.14859e-17)
(0.124866 0.0208414 2.72351e-19)
(3.97616 2.76112 -4.25996e-18)
(0.0136487 1.87089 1.21955e-17)
(0.35915 -0.0266454 1.64204e-17)
(2.80464 2.21716 2.19209e-17)
(2.16694 -1.46417 1.57345e-17)
(2.89015 1.08858 1.62109e-17)
(2.05555 1.48387 1.61814e-17)
(-0.630634 0.0988487 2.16521e-17)
(2.61574 0.692403 -2.77861e-18)
(-0.589189 0.387213 9.82166e-18)
(-0.670717 -0.088794 5.22455e-18)
(1.48946 1.57353 2.41762e-17)
(-0.473839 1.05357 2.63144e-17)
(0.961939 4.31188 1.67212e-17)
(2.63304 0.812497 -3.73903e-18)
(0.209519 1.99171 2.33979e-17)
(0.156173 0.0203507 7.43449e-19)
(0.124376 -0.0422836 1.23484e-17)
(-1.40501 1.03806 1.19229e-17)
(-0.206117 1.72499 2.79507e-17)
(3.92103 2.43092 -5.49029e-18)
(2.92052 1.74262 -7.1764e-18)
(-0.527838 1.4848 1.44723e-17)
(4.11899 3.52528 2.56573e-17)
(4.43405 2.5765 2.69708e-18)
(2.21783 2.00644 2.68455e-17)
(0.931021 2.40722 1.94055e-17)
(0.105048 -0.00348431 6.14372e-19)
(0.130142 2.43697 2.85171e-17)
(-0.81702 0.00161856 2.30529e-17)
(-0.569314 0.510115 2.25212e-17)
(-1.05094 -0.299511 2.26051e-17)
(0.0712425 -0.163253 9.63606e-18)
(0.0558585 -0.06031 2.36634e-17)
(0.192565 2.26627 1.26365e-17)
(4.4793 4.24396 2.61723e-17)
(0.242046 -0.199061 1.80012e-17)
(-0.759694 0.949955 2.50787e-17)
(2.5667 2.63566 2.75507e-17)
(-1.5825 0.289254 1.59486e-17)
(-1.72955 1.16823 1.15582e-17)
(-0.49328 1.16941 9.41758e-18)
(0.131561 -0.00787684 7.61483e-19)
(0.29168 1.76648 1.20505e-17)
(4.09384 3.2183 1.92363e-17)
(0.903362 2.44555 2.02644e-17)
(-0.422172 1.68184 2.7301e-17)
(2.18339 -0.809362 1.34453e-17)
(1.91764 1.73898 1.98067e-17)
(-0.464337 1.14937 1.7776e-17)
(3.66365 3.77059 2.73028e-17)
(1.47987 -1.85247 1.53386e-17)
(-0.287958 1.50761 1.85499e-17)
(3.49795 3.21318 9.03134e-18)
(0.359866 2.35658 1.5569e-17)
(3.93547 3.54835 2.08024e-17)
(5.53261 5.18338 1.82331e-17)
(0.00918808 2.37466 2.9434e-17)
(4.36581 2.45761 5.17835e-18)
(2.60407 -1.55295 1.7019e-17)
(1.26159 2.91481 1.91223e-17)
(-1.19633 -0.257117 2.09331e-17)
(-0.0103703 0.518255 5.93793e-18)
(4.09616 4.31976 1.87463e-17)
(-0.807569 0.438731 2.36082e-17)
(-0.984748 1.03824 1.2089e-17)
(0.529653 3.00143 3.1014e-17)
(0.221611 1.24048 -1.64475e-17)
(3.95402 2.56132 1.46115e-17)
(4.14236 4.63103 2.72301e-17)
(1.01672 2.63184 1.31466e-17)
(0.103831 -0.00952138 2.94021e-19)
(0.000816514 4.09218 1.3055e-17)
(-1.09454 0.451417 2.17427e-17)
(4.08035 2.24374 1.58186e-17)
(-1.39158 -0.13749 1.77256e-17)
(0.769324 0.789126 -6.44614e-18)
(-1.7325 0.741691 1.19103e-17)
(5.70843 5.78928 1.858e-17)
(3.81347 2.42533 1.61595e-17)
(2.38573 0.167656 4.48292e-18)
(2.40419 -1.66741 1.72775e-17)
(0.204144 0.178184 4.90569e-18)
(0.125113 -0.0144458 2.76897e-19)
(1.06346 3.0334 2.36072e-17)
(0.625247 2.32386 8.51936e-18)
(3.71475 1.61988 1.34774e-18)
(3.59424 3.16813 1.74983e-17)
(0.583217 -1.05816 1.63044e-17)
(-1.64649 -0.00184561 1.65777e-17)
(-0.399297 1.29753 2.06455e-17)
(5.14852 5.76163 2.37903e-17)
(-0.0794784 1.75197 2.06747e-17)
(1.32364 2.88414 1.28089e-17)
(2.79719 0.595637 1.73251e-17)
(2.51168 -0.0170139 8.60641e-18)
(-0.950336 -1.22075 1.32296e-17)
(1.03035 -1.77004 9.46521e-18)
(-0.519543 -0.0952288 5.99884e-18)
(1.83665 -2.05401 1.72159e-17)
(-0.803066 1.89639 1.15382e-17)
(-0.000815273 0.0617741 2.07505e-17)
(-1.25068 -0.508411 1.92157e-17)
(2.95593 2.0186 7.17252e-18)
(0.305273 0.0844434 1.29436e-17)
(-1.32725 0.39937 1.80816e-17)
(3.96292 4.22536 1.70622e-17)
(3.58894 -1.26523 1.71821e-17)
(5.69855 5.51767 4.99202e-18)
(0.553253 2.84764 3.16941e-17)
(0.915635 2.13324 1.20797e-17)
(-1.05736 0.0026659 2.14643e-17)
(-0.111413 -0.0712392 1.67043e-17)
(0.0903191 -0.00811929 2.1012e-19)
(4.19785 5.03667 1.83614e-17)
(1.39591 3.41776 2.24424e-17)
(-0.105881 -0.0425274 2.02107e-17)
(2.48722 0.853774 -6.64128e-18)
(3.81899 1.46398 1.65817e-17)
(0.114196 -0.0259176 5.9079e-20)
(5.32725 6.50243 2.22565e-17)
(-1.36627 0.468437 2.01077e-17)
(1.6215 2.92711 1.53821e-17)
(1.2021 -1.35481 2.74496e-18)
(1.18823 3.37789 3.23519e-17)
(3.62185 2.2575 1.54682e-17)
(0.186325 -0.167823 6.54293e-18)
(1.31316 0.674539 -1.10318e-17)
(3.33823 3.56598 1.85841e-17)
(-1.44934 -0.53362 1.7889e-17)
(1.64295 -2.12909 1.64947e-17)
(3.38364 2.56767 1.45574e-17)
(0.0861431 -0.0278998 -3.48696e-19)
(1.3314 2.62818 1.16067e-17)
(4.02685 1.50709 1.47856e-17)
(1.316 2.01907 1.76009e-17)
(5.58737 5.86617 5.04295e-18)
(-0.697772 0.597098 2.39419e-17)
(-0.696056 0.19437 6.44536e-18)
(4.16693 1.03809 1.56285e-17)
(-1.80357 -0.021217 1.7965e-17)
(3.3874 3.56243 1.19608e-17)
(-1.8387 0.136536 1.48079e-17)
(-0.349487 0.611733 5.27131e-18)
(1.29918 3.50072 2.49735e-17)
(-1.42519 -0.800193 8.39736e-18)
(3.72687 1.47059 7.24701e-18)
(-0.909221 0.104878 6.44893e-18)
(-0.176968 1.70103 2.28734e-17)
(5.52255 6.52006 1.12199e-17)
(1.59417 3.21102 1.76503e-17)
(0.417312 2.21106 2.31034e-17)
(0.933483 -1.58951 9.01059e-18)
(-1.24301 -0.685882 1.91483e-17)
(1.50748 2.15855 2.0558e-17)
(2.85651 2.08206 1.45699e-17)
(-0.0710046 0.536652 2.72458e-17)
(2.97305 -1.97186 1.37663e-17)
(-0.864784 1.08504 2.32236e-17)
(-1.29968 0.244014 1.69357e-17)
(3.44548 2.20899 1.64218e-17)
(3.85983 1.44422 2.20064e-17)
(-1.21788 -0.023593 2.07587e-17)
(3.22798 5.33664 3.19495e-18)
(-1.04522 -0.589325 8.2563e-18)
(5.15974 5.06895 8.08807e-18)
(1.1389 -2.30032 1.26077e-17)
(1.39762 3.13132 3.1469e-17)
(3.9369 3.63543 1.54257e-17)
(1.77579 3.30473 2.06959e-17)
(2.06918 4.08463 2.62941e-17)
(1.69736 2.60995 1.97457e-17)
(2.71202 -2.23285 1.30279e-17)
(3.64181 2.60383 1.55218e-17)
(-1.84533 -1.38681 6.89892e-18)
(-1.34781 -0.59627 1.86593e-17)
(2.77013 3.29739 1.71099e-17)
(1.47585 5.55075 1.01338e-17)
(-0.0322242 0.128588 8.30429e-18)
(2.14169 6.02399 4.1545e-18)
(-0.359774 0.477372 1.66974e-18)
(-0.467267 0.203814 2.6835e-17)
(0.0829288 -0.942978 1.57007e-17)
(0.267275 0.323252 -1.43221e-18)
(0.697246 0.520898 -1.56422e-17)
(3.38481 1.53718 1.80393e-17)
(-1.72249 -0.259971 1.45952e-17)
(2.19262 -2.65727 1.50517e-17)
(0.0829099 0.0784828 -9.60891e-19)
(5.38381 6.9147 9.38149e-18)
(-1.95702 -0.51975 1.85599e-17)
(0.45431 -0.16809 5.92561e-18)
(2.37268 3.70578 3.08143e-17)
(2.87252 2.3391 1.70361e-17)
(3.61816 1.05507 1.87124e-17)
(3.41911 4.27499 1.36895e-17)
(-0.157195 -0.984703 1.54711e-17)
(2.21162 2.65696 2.47219e-17)
(-1.61677 -1.084 7.84347e-18)
(-1.23443 -0.783411 1.85094e-17)
(2.0687 4.10555 2.83463e-17)
(1.75057 3.59885 2.16565e-17)
(4.09091 0.0861797 1.81556e-17)
(0.326838 2.34693 2.77266e-17)
(-1.47153 -0.397909 1.70053e-17)
(-0.368822 3.23973 1.36809e-17)
(1.40624 -0.665142 1.9488e-17)
(-0.0348011 -0.159798 2.57195e-18)
(2.52956 2.71183 1.53348e-17)
(2.31765 3.8792 1.74444e-17)
(-1.40618 -1.45165 9.94112e-18)
(1.47515 5.75471 6.96016e-18)
(1.20912 5.4029 1.1424e-17)
(1.90312 -2.67284 1.63783e-17)
(-0.991486 0.971617 2.20082e-17)
(0.756467 2.84564 2.48895e-17)
(-1.39729 -0.402715 1.87308e-17)
(4.09259 -0.406275 1.72893e-17)
(0.897723 -2.19539 1.23005e-17)
(3.19202 4.75451 4.76983e-18)
(1.02597 -0.944999 1.65652e-17)
(2.1641 3.07263 2.40191e-17)
(1.29871 1.47868 -1.61026e-17)
(-0.942326 -0.604846 6.46371e-18)
(-0.447957 1.6199 2.59621e-17)
(2.47581 5.30685 3.24051e-18)
(2.74831 4.35983 2.4251e-17)
(-0.918679 1.41348 7.96153e-18)
(0.450258 -0.984651 1.44551e-17)
(-1.5356 -1.51937 7.95611e-18)
(3.77073 0.914128 2.49889e-17)
(0.96007 5.23627 1.67938e-17)
(0.0103985 -0.100735 -8.60487e-19)
(1.38232 -2.91264 1.4059e-17)
(-1.43768 -0.603864 1.59156e-17)
(-0.543112 1.86401 1.43348e-17)
(0.0985447 0.0080745 2.41097e-19)
(3.34828 3.50457 1.1627e-17)
(3.93097 -1.06854 1.51636e-17)
(1.84219 5.48365 1.61486e-18)
(-1.9417 -0.627285 1.50729e-17)
(0.365729 -0.930379 1.33165e-17)
(2.67864 3.39573 3.12087e-17)
(-0.750728 -0.445872 5.16622e-18)
(5.03801 6.22703 8.75372e-18)
(3.21035 4.05262 2.60134e-17)
(3.16357 4.97527 2.74369e-17)
(0.747553 1.93347 1.44608e-17)
(3.27026 -2.17963 1.14698e-17)
(2.58459 1.62681 2.17789e-17)
(-0.611317 0.0484019 8.3273e-18)
(5.74356 4.48329 1.71606e-17)
(2.90515 1.09917 2.25611e-17)
(-1.36597 -0.72165 1.52156e-17)
(3.86177 -1.5544 1.36731e-17)
(-1.60128 -0.489113 1.48307e-17)
(-0.169432 -0.98668 1.35189e-17)
(3.35006 0.0998876 2.26714e-17)
(3.37803 0.644423 1.73195e-17)
(1.10831 -1.38648 -2.93354e-18)
(-1.30979 -1.10082 8.37771e-18)
(2.56654 0.204795 1.74976e-17)
(2.89987 3.837 1.27303e-17)
(3.10619 -2.67936 9.44173e-18)
(2.74574 0.984646 2.09318e-17)
(-0.143854 -0.132234 6.28356e-18)
(2.87067 4.57912 2.47892e-17)
(2.03212 -0.362217 1.78759e-17)
(3.5785 -0.423121 2.1848e-17)
(0.275525 -0.261806 3.03984e-18)
(3.51517 4.69431 2.60631e-17)
(-0.554855 -1.20347 1.1112e-17)
(-1.65087 -0.355755 1.64069e-17)
(0.920363 -0.766561 1.31489e-17)
(0.646658 2.98323 2.41699e-17)
(0.113626 -0.0985466 -2.73289e-17)
(0.699265 5.44697 4.27256e-18)
(1.48864 1.69836 -9.57323e-18)
(3.6106 3.97677 2.64624e-17)
(1.10684 -2.84276 1.31488e-17)
(-0.404729 1.34193 2.72243e-17)
(2.40109 4.44114 3.84122e-18)
(1.55082 3.73093 1.54862e-17)
(-0.978751 -0.806696 8.28096e-18)
(0.964886 3.38904 2.62398e-17)
(3.92489 1.00001 2.18087e-17)
(0.753281 -0.744901 1.26274e-17)
(0.149854 2.00729 2.67866e-17)
(3.82185 -1.46726 2.00081e-17)
(1.83409 2.40936 1.79905e-17)
(0.00780113 0.0244572 3.96759e-18)
(0.179938 5.26993 1.27644e-17)
(2.52307 -3.20013 9.60688e-18)
(-1.23803 -1.54824 6.78097e-18)
(-0.845651 0.0703188 6.13751e-18)
(-0.141573 0.301829 7.6264e-18)
(-1.39987 -0.566269 1.50036e-17)
(1.96848 4.7349 2.89782e-18)
(1.0499 5.08238 -4.31579e-19)
(3.37351 4.8915 2.7814e-17)
(4.60438 6.07685 2.5411e-17)
(3.86969 4.25675 1.32267e-17)
(0.417149 -0.753517 1.32852e-17)
(-0.645071 -0.54448 4.7316e-18)
(0.463277 -2.01752 1.43471e-17)
(3.8337 -1.81187 1.76494e-17)
(-1.23609 -0.722321 8.72884e-18)
(2.17823 -3.28917 1.17864e-17)
(1.53504 -1.05576 -5.56857e-18)
(4.7172 6.406 7.73542e-18)
(0.164627 5.29861 7.60595e-18)
(0.0175343 5.04532 1.74752e-17)
(3.86479 3.69585 2.32134e-17)
(3.89436 5.71022 2.58886e-17)
(2.73269 3.02532 1.33175e-17)
(0.411536 5.03524 -7.15035e-19)
(-1.31887 -1.37865 1.0092e-17)
(0.294162 -0.815143 1.25528e-17)
(1.4967 -0.09991 1.42077e-17)
(-1.35336 2.95646 1.41412e-17)
(2.19737 0.83723 2.01401e-17)
(3.37685 0.630851 2.20361e-17)
(-0.293451 -0.159913 6.6806e-18)
(2.07545 0.404786 2.012e-17)
(-0.420816 -0.350101 4.49802e-18)
(5.92425 4.49831 1.84433e-17)
(2.60295 0.0662769 2.6809e-17)
(3.71583 -2.6645 1.26973e-17)
(-0.0871413 5.13835 1.4919e-17)
(2.0948 3.64814 1.34415e-17)
(1.18236 -0.279849 1.23697e-17)
(2.77388 1.34553 9.85306e-18)
(2.89231 -0.496946 2.55265e-17)
(1.36765 2.91716 1.39663e-17)
(-1.74293 -0.606026 1.41992e-17)
(-0.539418 -1.503 7.66995e-18)
(-1.5105 -0.498372 1.26186e-17)
(0.212887 2.05577 1.34214e-17)
(1.87601 1.14192 2.61511e-17)
(0.569738 -0.628369 1.33967e-17)
(-0.799438 -0.819526 7.55533e-18)
(3.28623 -1.55349 2.43211e-17)
(1.57588 -3.47142 1.24584e-17)
(3.53457 -3.01538 9.47494e-18)
(1.82636 3.98051 1.07101e-17)
(0.899699 3.41982 2.8922e-17)
(1.1976 4.51639 4.43579e-18)
(0.704717 4.67105 2.90779e-18)
(-0.811391 -1.60302 5.73396e-18)
(0.18674 1.66007 2.86626e-17)
(4.97296 6.80866 2.5851e-17)
(-0.445657 5.12474 1.73231e-17)
(0.165943 -0.157073 4.43622e-18)
(1.44914 1.62402 2.40211e-17)
(2.94986 -3.71814 4.59468e-18)
(3.40653 -2.05411 2.27502e-17)
(1.53471 3.85307 2.98984e-17)
(0.907422 2.34078 3.06057e-17)
(0.68249 -2.60289 1.48298e-17)
(-0.768066 0.0194169 5.17079e-18)
(0.494739 -0.652387 1.3095e-17)
(4.21745 5.6744 2.65149e-17)
(0.178063 0.0970727 8.90322e-18)
(4.36129 5.727 1.16236e-17)
(-0.673601 -0.666194 5.3196e-18)
(-0.627964 0.0279196 5.97477e-18)
(-1.38462 -0.533345 1.23446e-17)
(-0.185234 4.77182 1.97814e-19)
(4.12246 5.82543 2.54208e-17)
(-1.32639 -0.764273 8.50606e-18)
(-0.969413 0.122297 6.28548e-18)
(0.19665 -1.03244 9.24823e-18)
(-0.942888 -1.32124 7.26039e-18)
(3.69046 1.21376 1.95648e-17)
(-0.595101 0.0980516 7.5435e-18)
(1.30279 -3.40649 1.34311e-17)
(3.4971 -2.95513 1.81213e-17)
(1.58107 0.712298 1.42028e-17)
(0.707929 -1.77177 -3.81346e-18)
(2.2741 0.217375 -6.15551e-18)
(-0.481079 4.99535 4.44565e-18)
(4.00028 0.69538 1.6253e-17)
(1.3355 0.482523 1.17092e-17)
(1.95911 3.05095 1.37532e-17)
(-0.561767 4.43631 1.50647e-17)
(-0.312426 -0.442702 4.97028e-18)
(0.831515 -0.131409 1.18832e-17)
(-0.603275 0.08811 6.18939e-18)
(-0.729052 -0.0512204 3.71228e-18)
(0.127626 -0.0649088 4.96728e-18)
(0.516015 0.60795 -2.0628e-17)
(1.38359 -1.41307 -6.21378e-18)
(-0.0496741 -1.30192 7.84526e-18)
(0.28978 -0.0942759 7.08476e-18)
(-0.835532 1.66207 1.4463e-17)
(1.66933 3.3491 1.42538e-17)
(-1.90628 -0.615828 1.34023e-17)
(-0.670264 -0.0706182 9.32465e-18)
(2.64129 -3.90018 5.2348e-18)
(5.79951 4.25814 6.53632e-18)
(0.356408 -1.90662 6.73678e-18)
(-0.789471 -1.01665 9.70843e-18)
(3.55815 -3.39394 1.42006e-17)
(1.7247 1.13823 1.72703e-17)
(0.629661 -0.29984 1.20823e-17)
(1.0808 3.89732 1.18553e-17)
(0.787362 -3.3175 1.21739e-17)
(0.0474552 4.45369 5.7216e-18)
(-0.649381 0.110205 5.03393e-18)
(-1.40298 -0.515373 1.39865e-17)
(2.49897 -1.72246 2.79347e-17)
(-0.536504 0.247565 7.33124e-18)
(-0.598965 -1.60792 5.41124e-18)
(-0.960612 5.04756 1.76631e-17)
(5.21216 7.15026 1.65871e-17)
(0.742534 4.13917 9.09026e-18)
(0.530963 -0.164958 3.52228e-18)
(-0.692689 0.012761 5.13105e-18)
(1.87736 -0.507088 2.98181e-17)
(-0.53421 0.277808 4.55865e-18)
(3.2939 -4.16468 5.67003e-18)
(3.33408 2.09752 1.32747e-17)
(0.372375 -0.76183 1.01601e-17)
(-0.0468434 -0.300428 4.06306e-18)
(0.050389 0.0264917 1.77103e-17)
(0.46162 -0.126796 1.04676e-18)
(-0.225196 0.0582586 8.92661e-18)
(2.77979 -2.25945 2.65154e-17)
(-0.408549 4.49596 5.40782e-18)
(2.94562 -0.164843 1.88836e-17)
(-0.695396 4.73468 2.18234e-19)
(0.0822143 0.198788 7.85191e-18)
(0.456128 -0.17188 6.10445e-18)
(1.44067 0.00497803 3.10021e-17)
(4.42498 5.54341 2.34374e-17)
(1.67171 -0.418568 -5.75628e-18)
(-0.539955 -0.707 5.69018e-18)
(3.78956 5.84683 1.2616e-17)
(1.17004 1.91524 2.95749e-17)
(1.9207 -4.13684 8.60491e-18)
(-0.831128 -0.27148 8.05417e-18)
(-0.471086 -0.03131 2.82444e-18)
(0.298399 -0.97688 8.07076e-18)
(0.373278 2.68088 1.97007e-17)
(-0.595046 0.223158 4.19843e-18)
(3.31253 0.147311 2.24894e-17)
(-0.665868 -1.46027 4.7772e-18)
(-0.881466 4.90519 7.37541e-18)
(1.62542 3.79331 3.0813e-17)
(-1.27698 -0.550408 1.2387e-17)
(0.499298 -0.157095 4.69585e-18)
(3.70355 1.58665 -2.20767e-17)
(3.05249 -3.26852 2.36234e-17)
(3.06413 -4.44053 1.21328e-18)
(5.88447 4.34121 5.81658e-18)
(-0.181591 -1.57673 5.79555e-18)
(4.75665 6.71193 1.95839e-17)
(0.304345 -2.48373 1.67244e-17)
(-0.739261 0.121891 4.12847e-18)
(-1.0729 4.85309 1.78958e-17)
(2.16796 2.55263 2.95453e-17)
(-0.572993 0.303315 5.52102e-18)
(-1.28444 4.90682 1.76514e-17)
(0.950695 0.54094 8.26389e-18)
(2.82657 -0.785421 2.04581e-17)
(-0.164303 0.314046 2.55413e-18)
(-0.509083 -0.610859 9.77256e-18)
(0.467286 -0.155846 5.77148e-18)
(0.715758 0.181195 1.01248e-17)
(0.224087 -0.00123205 -2.0479e-17)
(1.19079 1.122 1.11995e-17)
(3.15442 -3.66396 2.04716e-17)
(1.32898 2.61879 1.7635e-17)
(0.970495 3.30674 1.26073e-17)
(-0.536055 -0.988247 6.65898e-18)
(0.44786 -0.441034 1.04779e-17)
(-0.177282 1.78519 1.37126e-17)
(0.482945 1.23961 2.69055e-17)
(-0.266757 -1.5942 5.00816e-18)
(-1.77068 2.00007 1.91522e-17)
(1.22631 1.32763 1.14664e-17)
(-1.77506 -0.84058 9.44343e-18)
(0.34137 -0.246609 6.63427e-18)
(0.654312 3.55043 1.16613e-17)
(0.685717 0.325933 2.48766e-17)
(2.65702 4.37543 2.91893e-17)
(-0.734861 0.285667 4.74752e-18)
(0.153448 4.00983 9.82323e-18)
(0.377619 -0.160987 9.08603e-18)
(1.55763 -4.0581 7.41944e-18)
(0.369202 -0.732296 9.48373e-18)
(-0.526343 0.415299 6.10799e-18)
(-0.609354 0.117901 7.65243e-18)
(-0.6383 0.0220172 4.74003e-18)
(0.641026 -3.04315 1.37578e-17)
(3.20716 -4.56105 1.23549e-17)
(-0.210493 4.11893 9.37443e-18)
(1.37924 -1.05443 -6.8081e-18)
(0.142387 -1.31916 6.43791e-18)
(-1.53195 4.8902 1.82158e-17)
(-0.0662802 -0.387303 7.61406e-18)
(-0.418142 -0.79768 7.16395e-18)
(-0.401357 -1.34079 4.56101e-18)
(2.38507 -4.84548 4.31023e-19)
(-0.385616 -0.136528 7.32676e-18)
(3.57677 0.360319 2.2705e-17)
(-0.136099 1.71702 2.28923e-17)
(3.24003 -4.92004 5.15612e-18)
(5.21818 7.49958 1.02397e-17)
(-1.42205 4.08175 1.5099e-17)
(-0.0693755 -0.0651048 3.82989e-18)
(-0.553567 0.363037 3.78923e-18)
(1.80152 -2.41161 3.08976e-17)
(1.35172 -1.83659 3.27802e-17)
(-1.39616 4.68966 4.59308e-18)
(-1.15667 4.50096 2.19293e-18)
(0.0619034 -1.47952 5.36053e-18)
(4.86416 6.7578 2.61783e-17)
(-0.887932 4.24159 6.58881e-18)
(0.192866 -0.0160676 -2.92543e-18)
(2.22825 -3.6763 2.8668e-17)
(-0.847339 0.189968 5.07029e-18)
(3.26919 0.957708 6.41457e-18)
(4.5008 5.97229 1.86239e-17)
(5.12827 3.43238 1.99244e-18)
(0.448586 -0.0302462 9.47237e-18)
(0.352618 -0.430048 7.25923e-18)
(0.524672 -0.419154 3.38367e-17)
(-0.558112 0.491027 5.7828e-18)
(0.942393 -3.88391 9.48281e-18)
(-0.392615 -1.14563 4.61362e-18)
(-0.160332 -1.51953 3.80934e-18)
(2.80423 -5.53155 -5.54796e-18)
(-0.197567 -0.0617337 5.35075e-18)
(0.680726 0.668026 9.2823e-18)
(-1.20134 -0.273333 9.81344e-18)
(0.497591 -0.0879373 8.81204e-19)
(0.780184 1.08012 1.05274e-17)
(0.576131 2.67058 1.431e-17)
(0.357227 -0.53494 8.85691e-18)
(2.40472 -4.04482 2.71555e-17)
(-0.350632 -0.625628 1.10503e-17)
(0.108482 -0.363755 6.40045e-18)
(-0.373251 -0.0251898 3.71485e-18)
(0.377527 3.0101 9.62308e-18)
(0.0879487 -0.0665505 -3.78496e-18)
(0.184158 -1.06136 7.23076e-18)
(2.50152 2.13737 2.87173e-17)
(0.0866892 3.48481 9.49385e-18)
(0.312437 -0.325279 1.05431e-17)
(-0.101258 0.0478451 3.37729e-17)
(-0.0833408 0.0128163 2.01482e-17)
(0.751298 -3.7625 9.47232e-18)
(-1.7547 4.74457 2.0233e-17)
(1.98306 -4.8035 1.87304e-19)
(-0.734205 0.4178 3.5307e-18)
(-1.74794 4.29832 1.59402e-17)
(0.135971 -0.300696 8.49511e-18)
(0.0395196 0.11726 -1.25198e-17)
(0.515494 -0.0932884 4.67956e-18)
(-1.10663 -0.457134 8.70769e-18)
(2.58579 -4.9748 2.10645e-17)
(-0.192457 3.67728 8.37088e-18)
(-0.48659 0.678219 7.34354e-18)
(1.80258 0.80587 1.98197e-17)
(-0.149997 -1.3797 3.76385e-18)
(-1.59692 4.48087 2.24823e-18)
(0.171128 -1.3136 6.19468e-18)
(-1.29565 4.24131 7.04924e-18)
(0.737481 1.57973 9.40801e-18)
(-1.76468 4.5957 5.52335e-18)
(0.0464918 -0.21668 8.03237e-18)
(0.403958 -0.0829041 3.93845e-19)
(-0.651467 3.93335 8.17118e-18)
(2.44667 -5.59713 -6.42598e-18)
(0.0246461 -0.0216027 5.30196e-18)
(5.07789 3.49894 8.64932e-19)
(-0.246121 -0.461381 -3.5801e-17)
(-0.24865 -0.800915 7.73943e-18)
(-0.593471 0.457356 2.8472e-18)
(-0.266081 -0.544777 1.34606e-17)
(2.78276 -5.31172 1.50685e-17)
(-0.0029918 -1.5578 4.14534e-18)
(-0.332864 1.60791 2.22437e-17)
(4.87519 7.05212 8.27749e-18)
(2.52028 1.10807 -1.02504e-17)
(3.24313 1.5407 -1.37121e-17)
(2.96904 4.25692 2.80338e-17)
(0.78357 -2.27344 -2.12e-17)
(0.532186 -0.0690313 3.29147e-18)
(0.00145717 -0.0734892 -3.4509e-19)
(-1.98187 4.57042 1.46166e-17)
(0.147145 -2.76165 -4.0308e-18)
(-1.01151 3.94826 7.28674e-18)
(-2.472 1.65599 1.30594e-17)
(2.79296 -6.08094 -6.36963e-20)
(0.0128353 -1.51255 3.25337e-18)
(-0.570745 0.720762 6.30244e-18)
(0.0496661 -0.792787 9.04638e-18)
(-0.146071 -1.01364 5.0079e-18)
(-0.875704 0.367377 5.24652e-18)
(0.371556 0.412429 9.6506e-18)
(-2.1648 4.63841 1.82759e-17)
(0.203386 -0.183723 9.44628e-18)
(0.768991 0.117794 -8.74254e-18)
(-0.145131 2.96467 9.36418e-18)
(-1.18501 -0.376913 1.12494e-17)
(1.21719 -3.94063 3.31355e-17)
(-0.250898 -0.711221 8.53257e-18)
(0.0301101 -1.1312 7.11738e-18)
(-0.951535 0.530576 4.18988e-18)
(0.0714145 2.43884 1.18318e-17)
(-0.51486 -0.132515 3.10896e-18)
(1.20948 -4.67306 1.45104e-18)
(4.54879 6.97569 1.41823e-17)
(-0.777213 1.90373 1.17387e-17)
(4.29246 3.46711 2.00389e-17)
(0.449551 -3.20657 5.22068e-18)
(-1.87255 3.36332 1.38364e-17)
(0.435626 1.09594 1.04667e-17)
(-0.0430869 -1.77824 3.53126e-17)
(3.41777 1.18451 1.34389e-18)
(-0.518608 0.72759 9.16692e-18)
(0.347209 -0.536047 1.40167e-17)
(0.520154 -2.40941 3.51693e-17)
(-0.349254 3.22666 8.00458e-18)
(0.00563559 -1.26337 2.86216e-18)
(2.71572 -6.30615 -8.0195e-18)
(1.52825 -4.49708 3.17747e-17)
(0.500666 -0.46186 4.42301e-19)
(0.359041 1.45375 9.18525e-18)
(0.27515 -0.434113 7.19035e-18)
(-0.857237 0.0304092 6.80657e-18)
(-1.04987 -0.529607 8.6478e-18)
(-0.00315125 -1.46871 5.70595e-18)
(1.19838 -1.95258 -1.20192e-17)
(1.59482 -5.55306 -7.85195e-18)
(-1.11066 1.38682 2.19465e-17)
(1.94397 -0.279771 -9.18992e-18)
(-2.34114 4.56933 1.91853e-17)
(-0.558593 3.55526 7.36105e-18)
(-0.112559 -0.832051 7.36724e-18)
(-0.302137 -2.85131 7.40572e-18)
(1.68964 -5.63862 2.92761e-17)
(1.71642 0.288592 6.26115e-18)
(0.321492 -0.176713 6.43501e-18)
(0.103716 -0.392915 7.99494e-18)
(-0.766588 0.59065 1.98071e-18)
(-2.38232 4.39965 3.99111e-18)
(-0.164493 0.0521255 2.40914e-18)
(0.0458878 -1.52852 4.18729e-18)
(-0.360955 0.149116 9.16608e-18)
(-0.0268474 -0.411949 7.26808e-18)
(3.8925 4.83819 2.55329e-17)
(-1.00918 -0.288158 3.13404e-17)
(-0.759757 0.406615 6.19316e-18)
(-1.55896 3.9565 6.35668e-18)
(1.77602 -5.82944 2.53664e-17)
(0.0355957 -1.087 3.65272e-18)
(-1.94449 4.20549 2.96133e-18)
(-0.849349 3.65979 6.14423e-18)
(-0.725587 0.69955 5.01832e-18)
(-2.37046 3.95001 1.43048e-17)
(2.01606 -6.54861 -1.27221e-17)
(-0.204258 -0.596837 1.35821e-17)
(-0.0597739 -0.385188 1.47021e-17)
(0.074038 -1.43918 1.98061e-18)
(-0.166283 -0.800936 1.32269e-17)
(0.851446 -4.41566 4.12243e-18)
(-2.53642 4.14828 3.17465e-18)
(2.00556 -6.5572 1.40853e-17)
(0.0110657 0.169256 -6.6929e-19)
(4.39087 2.40637 1.54177e-17)
(0.416041 -0.0782559 6.17126e-18)
(0.0588095 0.295159 1.45494e-17)
(-0.204666 -1.30458 9.9623e-18)
(0.0947542 0.0631801 -4.33075e-19)
(0.156434 -0.56116 7.27474e-18)
(0.0911516 0.837368 8.05543e-18)
(0.145637 -1.28692 2.77381e-18)
(-2.67671 4.49817 1.68828e-17)
(0.273103 -0.516314 8.28671e-18)
(4.38696 7.00213 3.51188e-18)
(-1.2266 3.71042 6.30484e-18)
(-0.943225 0.592137 3.44051e-18)
(1.19578 -5.26649 -3.96756e-18)
(-2.59373 4.08542 1.69527e-17)
(-0.270793 2.35877 1.37092e-17)
(0.086458 -0.377433 7.1342e-18)
(-0.147365 -0.670352 1.06824e-17)
(0.517173 0.0446747 7.96428e-20)
(0.381103 -4.18415 2.41753e-18)
(-2.26083 4.15122 3.01932e-18)
(-1.62179 0.268788 2.4433e-17)
(-0.428108 2.61165 1.21262e-17)
(0.0735412 -2.95546 -1.30561e-17)
(-0.549517 -0.302829 4.43528e-18)
(-0.55522 3.06809 8.79166e-18)
(0.402668 0.0544637 -1.7742e-19)
(-0.144366 -1.47349 7.08457e-18)
(-0.927479 0.497985 1.13289e-18)
(-0.560195 0.526441 8.64235e-18)
(2.32466 -6.78374 1.91898e-18)
(0.180734 -0.418215 7.52849e-18)
(-0.53146 -0.214535 3.24497e-18)
(4.43835 6.77395 1.20494e-17)
(0.0284389 -0.708684 7.36054e-18)
(0.436355 -2.98413 -2.1476e-17)
(1.56089 -6.22796 -1.30684e-17)
(-0.559707 -0.091436 3.21235e-18)
(0.021774 -0.022873 2.90937e-18)
(-0.0677884 1.37998 1.35657e-17)
(1.08564 -1.40761 -1.03492e-17)
(-0.0350942 -0.582875 1.18854e-17)
(-2.93547 4.37881 1.0377e-17)
(0.157979 -3.54688 -6.0199e-18)
(-0.404007 1.00627 3.75468e-17)
(-0.010049 -1.56043 3.31285e-18)
(-0.755657 3.24683 8.02477e-18)
(4.37423 2.52893 1.96528e-17)
(-1.5156 3.64994 5.69812e-18)
(-1.90333 3.90103 4.3046e-18)
(0.229026 -0.877877 4.14544e-18)
(2.19755 -7.36872 -1.54468e-17)
(-0.0192272 0.0887593 1.9685e-17)
(-2.88543 0.521154 1.39031e-17)
(0.0925126 -3.88438 3.44756e-17)
(0.530561 -4.6149 3.47852e-17)
(1.03083 -6.14206 3.30029e-17)
(-2.9926 4.35783 1.88249e-17)
(-0.467551 -0.428474 8.01608e-18)
(-2.49014 2.99494 7.13527e-18)
(-0.883541 0.610747 8.93148e-18)
(0.385874 -3.40474 -1.02961e-18)
(-0.185202 -0.686887 1.26351e-17)
(0.546219 0.0311017 3.26791e-18)
(-0.369092 -1.08192 2.15642e-17)
(0.113379 -1.45821 2.2728e-18)
(-0.879725 -2.25369 3.35751e-17)
(-0.536006 0.600675 6.01349e-18)
(-0.16557 0.00247674 2.69666e-17)
(-1.42618 -1.55831 3.03214e-17)
(-0.232481 -0.512608 2.66803e-17)
(0.898183 -2.6959 -2.04737e-17)
(1.03877 -6.48084 3.14133e-17)
(0.217458 -0.293542 3.95379e-18)
(0.579913 0.0718265 2.58581e-18)
(-0.994299 3.41108 7.33351e-18)
(-0.929087 0.544608 5.37977e-18)
(-0.409905 -1.36571 1.57624e-17)
(-0.0378005 -0.636086 8.92057e-18)
(0.354124 -4.7028 -8.17233e-21)
(-0.439722 -3.65521 1.83858e-19)
(-2.79772 3.26046 1.12552e-17)
(0.265194 -1.10562 2.82505e-18)
(-0.00888793 -0.0505707 -7.01e-19)