/*--------------------------------*- C++ -*----------------------------------*\
  =========                 |
  \\      /  F ield         | OpenFOAM: The Open Source CFD Toolbox
   \\    /   O peration     | Website:  https://openfoam.org
    \\  /    A nd           | Version:  8
     \\/     M anipulation  |
\*---------------------------------------------------------------------------*/
FoamFile
{
    version     2.0;
    format      ascii;
    class       volScalarField;
    location    "0.9";
    object      alpha.water;
}
// * * * * * * * * * * * * * * * * * * * * * * * * * * * * * * * * * * * * * //

dimensions      [0 0 0 0 0 0 0];

internalField   nonuniform List<scalar> 
1924
(
0.0300162
0.000238154
6.28034e-05
8.99723e-05
0.000208311
6.04148e-05
6.19315e-05
1.54517e-05
1.51367e-05
0.000170069
7.2777e-05
0.00035423
0.00172056
0.000239683
0.000152618
0.000275275
0.00131416
2.53867e-05
0.0968673
2.78978e-05
0.000315029
0.00461726
9.74796e-06
2.72466e-05
0.0029453
0.000220127
0.000441919
0.0367526
0.000421996
1.14239e-05
8.4766e-06
0.000361989
0.0244703
0.00143924
0.00384985
0.00133067
0.000360489
0.000837422
9.88745e-06
9.74796e-06
0.000356373
0.0019406
0.000294861
0.00249312
0.000187259
0.00176129
0.142761
6.95269e-05
1
0.000231138
0.0298814
0.0019245
0.00462111
0.288486
0.00180989
0.004923
0.170862
0.000139479
0.114027
0.00010644
0.00416107
0.000277148
0.0043779
1.98667e-05
0.735844
3.63447e-05
0.000294097
7.34031e-06
0.00110931
0.0436284
0.000140582
0.000226994
1.37832e-05
6.57718e-06
5.63292e-06
0.00107503
2.32239e-05
7.45012e-05
8.85455e-05
0.00435694
5.14437e-05
0.000270065
0.000246973
0.000158836
0.0471754
6.59009e-06
0.0839329
0.000169152
0.843899
0.000161531
0.00029962
0.000112165
0.00189567
0.00174047
0.000348574
0.99553
1.49844e-05
5.13946e-05
0.000106978
0.000197284
0.000121062
0.000998461
0.000111729
0.000107308
0.000855023
3.04167e-05
0.000616792
0.00126284
0.000105578
0.00140093
1.27694e-05
0.000626072
0.000202605
0.000114741
9.30937e-05
0.000158658
5.90972e-05
0.000266881
1.06926e-05
3.11394e-05
0.372994
1
0.000230051
0.000158753
0.000163366
0.000705307
0.000136448
1.24852e-05
0.000225367
1
1.29507e-05
5.39355e-05
0.000252938
0.000278133
0.0015708
7.72119e-05
0.000870837
0.000870993
2.79902e-05
0.000195551
0.0255772
0.000165366
0.251939
0.000186752
4.19083e-05
1
0.00126969
0.000135984
0.000225885
0.0042895
0.000327811
1
0.000135984
3.41873e-05
4.7053e-05
0.000126365
1
0.000667538
1.38391e-05
0.00382807
0.000121025
0.00192666
2.92421e-05
1
0.0387562
6.78479e-05
5.42836e-05
1
1.3745e-05
0.000148829
0.000190575
2.26078e-05
1.3802e-05
0.000105581
0.0100649
0.00140375
3.43134e-05
0.000154629
0.00919538
2.76773e-05
0.000100126
0.000247753
3.97827e-05
5.74512e-05
1
0.00338621
0.000136448
0.000103829
1.31817e-05
2.32527e-05
0.000135027
1.96595e-05
0.000186438
2.55099e-05
9.96031e-05
1
0.000719937
0.00133302
0.000163703
0.000816339
0.0952971
0.00330408
7.27298e-05
0.000337576
0.000197698
0.000106617
0.000298435
0.000342764
0.000135984
0.000160764
1
0.000420237
0.000259914
0.000229624
0.000121725
1.24472e-05
0.000117432
0.000329044
0.000534345
6.11091e-06
0.000113461
0.000218701
4.14942e-05
0.00026622
0.000534952
0.000925016
0.000230927
1.82012e-05
0.000906487
0.000157536
0.00018698
0.000279366
0.000194614
0.000156566
0.000926712
0.0221502
0.000262653
0.00039528
3.56192e-05
1
3.43928e-05
0.000690007
0.000187241
0.00155876
0.0238623
0.000135984
0.000535982
0.00248627
7.99563e-05
2.68498e-05
0.220355
1
0.000909182
7.69388e-05
4.05782e-05
0.000236409
0.000225363
0.000457859
6.13685e-05
0.000393701
6.06669e-05
0.000407281
0.000101753
7.90275e-05
0.000477093
5.63604e-06
0.00205424
1.34835e-05
0.00192666
0.249393
5.58418e-05
0.00134901
0.00018698
0.000187324
0.000275149
4.431e-05
0.000535982
0.000518338
4.97064e-05
0.000790682
0.202045
1
0.00025787
0.000922054
0.507265
7.98998e-06
0.000230927
1
4.79779e-05
0.000261623
0.000391424
8.09614e-06
0.000158337
0.000263698
0.000243908
0.0362607
0.000146545
0.00187965
2.14401e-05
0.000263021
1
3.16596e-05
0.000250298
0.000145798
0.000118115
0.000731948
0.00409604
0.000250344
0.000210223
0.000113121
0.000139065
0.00594892
0.000926297
0.00292353
0.000196742
0.00824882
6.13685e-05
3.16331e-05
0.000931359
6.19579e-05
5.63604e-06
0.000710077
2.92421e-05
0.000170137
0.000752598
5.43034e-06
0.000144491
0.000205089
0.000147069
0.000116999
0.00112027
0.000297118
0.000273771
2.77426e-05
5.75985e-06
0.000279533
0.00014046
0.00090817
0.000640796
9.36738e-05
5.43034e-06
0.00012099
0.00436867
0.00188423
0.000146358
0.000226661
0.000186741
0.000111666
0.00582472
0.000750159
0.000568827
0.251939
0.044596
0.00026162
0.000139411
2.70786e-05
1
2.76297e-05
0.000232784
0.888108
0.000134089
0.000147082
0.000250714
0.000171952
0.000263157
0.000639676
0.00436867
0.0044184
0.00023653
0.000824882
0.0001251
8.38497e-05
0.00105792
2.19609e-05
0.00080223
0.00531941
0.000146362
0.000146545
0.00065632
6.57216e-05
4.63462e-05
2.5272e-05
0.000170569
0.000852582
0.00120253
9.47157e-05
5.63379e-06
0.000297118
0.00112459
0.000889482
0.0221483
0.00183876
0.000829127
0.000205152
0.0001822
0.000188639
0.00116841
0.00408371
1.98978e-05
0.000256325
1
2.62049e-05
0.00184416
0.00192666
1
0.000134018
2.49478e-05
0.000184586
0.00173486
0.00104655
0.000115663
0.00207717
2.76299e-05
0.000852595
9.85498e-05
0.00069382
5.62057e-06
0.000142818
6.58845e-06
1.80818e-05
0.000142816
0.00460445
2.40479e-05
0.000814318
0.000173885
0.000141377
0.000196742
1.03271e-05
0.00116796
9.9224e-05
0.000133709
5.43034e-06
0.000105581
9.24144e-06
9.91845e-05
0.00073321
0.000266213
0.0130496
0.000325971
0.000178185
0.00211838
0.00126166
0.000926297
0.0876093
0.000503645
0.00525575
0.000115057
2.30962e-05
0.000810118
0.000191214
0.000247176
0.00367416
0.000927562
2.03417e-05
0.00126247
0.000681835
0.000299512
0.000247029
9.33648e-06
3.48288e-05
5.74459e-06
0.00091515
0.00825148
0.001132
6.31714e-05
0.000143767
0.000601566
0.000103716
7.38731e-05
9.12831e-05
0.000367994
0.00331149
5.45143e-05
0.000265398
0.00461278
9.71476e-06
0.000408419
0.0002001
0.000302918
0.000135515
0.000229077
8.65102e-05
0.000353092
0.000646738
0.00096624
0.000170915
0.00126178
2.04456e-05
0.000105581
5.92248e-05
0.0128983
0.000102109
0.000166459
1.6372e-05
0.000135153
2.11263e-05
4.72289e-05
0.000134831
0.00126268
0.000254755
0.000135153
0.00024782
0.00457158
0.000604957
0.00171307
0.000346612
0.000145838
0.00126294
0.00391283
0.000285282
6.07026e-06
1.88353e-05
0.000133709
0.000926712
0.00013943
0.00014247
0.000925499
0.000755014
7.99314e-05
2.52057e-05
0.000611335
0.000255004
5.62057e-06
0.000299653
0.000508043
0.000750869
5.64513e-06
0.00183605
0.000602747
0.000274268
0.000762136
0.0002822
0.00393356
0.00150431
1.04459e-05
0.000649279
9.88497e-05
0.00461726
0.00823584
0.000132104
0.0020029
0.00122604
0.00444648
2.07855e-05
0.000297485
0.000268893
4.80273e-05
2.68836e-05
7.17172e-05
3.18198e-05
0.00124079
0.000367979
2.06026e-05
0.00258326
0.00126294
0.00123392
0.00183654
0.0277297
0.00047308
0.000747151
1.78817e-06
0.00071778
0.00096266
0.000352032
0.00171926
6.58958e-06
5.77225e-06
1.29507e-05
9.92361e-05
0.00199411
0.000221646
0.000114021
0.00126294
0.000136739
1.29396e-05
0.000137229
0.00992588
0.00179005
0.000135153
6.59014e-06
1.61982e-06
9.2831e-05
0.000188261
0.000139091
0.925242
0.00248694
0.000221982
0.00399863
2.49172e-05
0.000141513
3.93283e-05
0.00269212
0.238331
0.410301
0.0276255
0.000135972
0.000586038
0.000152914
0.000462286
0.00294974
0.915857
0.000249588
0.000139696
4.20141e-05
0.00388542
0.000229026
0.000735979
6.11903e-06
6.58556e-06
0.00405598
3.93283e-05
0.000137188
0.00992588
1.18933e-05
0.00161219
5.37692e-05
0.000113705
1.57261e-05
0.925242
4.20141e-05
0.000282527
2.39559e-05
1.40354e-05
1.61982e-06
0.000210053
3.93252e-05
0.00183626
7.85467e-05
0.0005211
0.00594867
2.05068e-05
0.00113957
1.18933e-05
0.00575968
0.000804201
0.922458
0.000883006
0.0873281
0.000574659
0.00030046
0.000256648
0.000377969
0.00200701
0.000999407
0.000207694
0.000218838
1.61624e-06
2.04453e-05
0.000679554
0.00461726
0.000706334
0.000371972
0.000177353
0.000108882
0.00472899
0.000140552
0.000849249
6.01402e-06
0.000107077
0.00455349
6.58883e-06
0.00305666
7.59126e-06
0.000303338
0.000138435
0.000163652
0.000127894
2.90477e-05
0.00268756
0.00213904
0.0016242
6.26305e-06
0.00437442
1.79924e-05
6.09279e-05
0.000295638
0.000274398
2.05131e-05
0.0277297
0.0097967
0.000170712
0.000372202
4.55169e-05
0.000653877
5.76621e-06
0.000285649
0.000653877
0.990635
0.000136706
0.00632538
0.000194706
0.00029962
5.99706e-05
0.000123694
8.38018e-05
0.000341589
0.00393171
8.5792e-06
0.00160391
1.61982e-06
0.000232573
0.0056778
0.000575082
0.000520987
0.587225
0.000712894
0.000246226
0.000597188
0.000135042
2.94663e-05
0.00136604
0.045563
0.000387347
1
0.000112431
0.000143753
0.00040018
0.00643315
0.000212406
0.507274
1.09102e-05
1.94257e-05
6.52631e-06
0.00467955
2.05127e-05
0.00587596
0.000156566
0.773707
1.00872e-05
0.000247867
0.000398207
0.0059486
0.00103968
4.64168e-05
0.00040407
0.000219964
0.000721925
0.00069382
1.90552e-05
0.012175
0.306531
0.000140608
8.98692e-05
0.598029
0.000251703
0.0525739
2.94663e-05
0.00838866
0.00134794
0.000303338
4.29036e-05
0.000769892
0.000284756
0.00230783
0.000788445
0.000109441
0.00110764
0.877649
1
1.96104e-05
0.000177274
0.00049374
2.04456e-05
0.000325913
1.64554e-06
0.00393171
9.70208e-08
0.00178233
0.0374875
1.80609e-07
2.09639e-05
9.70924e-08
0.00231397
0.000395855
8.4766e-06
0.000331958
2.94663e-05
1.01165e-05
0.00468302
0.00015861
0.00490727
6.11903e-06
0.000285167
0.000138505
2.77426e-05
4.48392e-05
2.05426e-05
0.000449926
0.000307672
0.00222562
0.00393171
6.95103e-05
0.000372202
0.000399331
0.000330427
0.000325756
0.000198366
0.999981
0.00069382
6.58434e-05
0.00437102
0.000727951
0.000220068
0.000678538
4.82002e-05
2.04456e-05
0.000461063
1.95412e-05
0.000398241
0.000611057
9.20053e-06
0.000105017
0.00431665
0.913451
7.54608e-05
0.0283032
2.06332e-05
0.0455199
0.000207771
6.65793e-06
0.0120764
0.000110465
2.07714e-05
0.0601897
0.000663469
9.48061e-05
0.00225202
0.000657596
0.000243152
0.00467223
2.16727e-05
0.000324181
0.000512219
9.70208e-08
1.59427e-06
9.70208e-08
7.7198e-06
2.94573e-05
0.000228206
0.999999
0.000192534
0.418545
8.90273e-06
9.89083e-08
1
0.0391226
9.47448e-06
1.59084e-06
2.0262e-05
6.80837e-05
0.000285859
0.000646829
0.0375557
8.43681e-06
2.19119e-05
0.000153339
0.0839637
2.94663e-05
0.348758
0.000233377
0.00057991
2.04609e-05
0.00015553
0.000331415
0.046247
0.000397128
0.234019
0.000127709
0.0642179
0.0039365
0.0003237
6.47838e-05
0.180095
0.000246169
0.00226147
0.00314793
0.000249187
0.00638228
0.982704
0.000256261
0.00259095
0.000133283
2.02024e-05
0.00158007
0.00169145
5.74617e-05
0.000275429
2.77032e-05
0.000666775
0.0006629
0.000103601
0.000325913
0.69984
2.04534e-05
0.000116612
0.000599628
0.000617437
1.99133e-05
0.029311
2.10123e-05
0.0401425
0.000496128
6.53223e-05
0.877649
9.70208e-08
1.66263e-06
2.59008e-05
0.0151321
2.34996e-05
2.10533e-05
9.70553e-08
0.000745019
0.000305541
1
0.826562
0.000203346
0.00734094
9.7172e-08
9.04917e-05
9.0297e-06
4.54844e-05
2.05457e-05
1.58955e-06
1
8.4125e-05
0.0103101
0.000325502
0.000110802
0.000284756
0.000159455
0.00455765
1.99322e-05
6.03245e-06
0.0116078
0.000688466
8.25098e-06
9.36379e-05
6.95103e-05
0.000704518
0.000200481
1.7321e-05
1
8.11566e-05
0.735587
0.368641
0.00015861
1.59062e-06
0.000346004
0.00799543
2.12002e-05
0.101121
4.52852e-05
0.0449456
6.42797e-05
0.00055506
0.373733
0.234761
0.00865618
0.0458618
1.95658e-05
0.15444
0.00031292
6.31574e-05
0.000217722
0.164393
0.000203346
2.0764e-05
1.90436e-06
9.92709e-08
0.0151372
5.47018e-05
2.92552e-05
0.00123235
9.7172e-08
2.0489e-05
0.00323723
0.00169199
2.37333e-05
0.000664591
0.000136583
1.99057e-05
0.000628431
0.0782934
0.00175021
1.02803e-07
0.000630091
1.6511e-06
0.00465705
0.00462207
0.0026361
0.00461726
0.000199441
0.000282285
0.00462792
0.000662103
0.00045286
0.00992913
0.000103498
9.18085e-05
0.0528237
1.12947e-07
0.00734094
0.0910249
2.69762e-05
6.35639e-05
8.05731e-06
1.96994e-05
2.10228e-05
0.000617437
0.00439872
1.58958e-06
0.00761084
1.98839e-05
0.000505878
0.000621926
0.000219853
0.00122995
0.00169031
2.93701e-05
4.55278e-05
3.07425e-05
2.49718e-05
3.54293e-05
1
0.00017798
5.53851e-05
0.000346223
5.43393e-05
0.000196398
0.000134343
0.000145885
0.673006
0.0987094
8.31437e-05
0.000663704
0.923629
0.718488
0.00461467
2.46192e-05
0.0357478
2.2031e-05
0.893334
1.96628e-05
0.000188187
0.0006629
1.99575e-05
9.91754e-08
8.02986e-05
9.76874e-05
1.12616e-07
0.000197992
0.00178727
2.62958e-05
0.130976
9.47409e-06
1.49894e-05
2.76856e-05
7.92275e-07
2.21682e-05
0.000196398
0.00455094
0.00169031
0.711225
0.00158698
0.00473828
0.141994
5.47018e-05
1.99381e-05
1.1772e-07
0.000142715
0.386148
1.99057e-05
0.0476377
1.59189e-06
6.42797e-05
0.00169151
0.000198603
0.36762
2.22044e-05
0.000242154
5.16511e-06
0.00460834
0.00124027
0.000377681
0.793427
0.864716
0.00531049
7.63752e-05
0.00169149
1.99057e-05
0.00169175
0.000773913
0.000132572
0.0046083
0.00460834
2.3559e-06
0.00123542
1.96658e-05
1.18023e-05
0.000198988
0.00819721
0.00366736
0.00431673
0.00734046
0.0046445
1.1877e-07
0.850664
0.352031
0.000394981
0.000129216
1.08565e-07
0.0999573
0.000657309
0.600721
0.728125
2.76299e-05
0.462671
2.37996e-06
0.000129897
0.000474576
5.18717e-06
0.000801835
0.926943
2.00334e-05
0.000628951
0.000621208
0.000134854
0.000200759
0.000188957
0.00467098
6.40679e-05
3.68712e-05
0.000647706
2.01797e-05
0.000418746
0.00538033
1.72624e-06
0.000621411
8.26361e-05
0.978215
0.000217915
2.07628e-05
0.868206
0.908626
0.908916
0.000958608
0.00467866
1.42396e-05
0.00430346
0.00446038
0.970885
0.000199441
7.78143e-05
1.99057e-05
0.000130103
0.000242215
3.67432e-05
0.142204
0.000230472
0.11695
0.00100579
0.00169151
0.36906
0.00468052
2.46314e-06
0.569802
0.591034
0.000396095
7.25416e-05
0.00429329
3.72902e-05
0.00741708
0.107827
0.249663
0.0002822
0.000124346
0.000717646
0.00261885
0.00016218
0.000173391
0.00063098
0.816933
3.88825e-05
0.00725313
0.00169098
0.000278422
0.926637
0.00164471
1.34981e-07
5.05117e-06
0.00468996
0.000102464
1.20521e-07
0.0028336
0.00473794
0.000731753
1
8.68644e-06
0.000101128
0.968738
0.000320832
3.12977e-05
0.000207249
0.00273414
0.00037289
0.00010108
1.8449e-06
1
7.08301e-05
0.000540941
0.000217915
0.000566784
0.31645
0.000162149
0.000272046
0.682283
0.00010231
0.00173227
0.000620511
0.375228
0.00281548
0.00165665
2.18161e-05
0.000719362
0.449232
8.62208e-05
0.31441
0.909678
0.598036
0.00454771
0.000622301
0.00135837
0.00169151
4.54361e-05
0.000758488
0.00085064
0.000713863
0.000934395
0.000292046
0.000310238
0.000237111
0.000133618
0.000655402
0.978215
0.978474
2.02236e-05
0.00046283
0.000395834
0.000107779
0.016135
0.0012381
0.000101765
0.000161973
0.00010108
0.00026569
0.00473785
7.41007e-05
0.671728
1
0.000392509
0.000192142
0.00865794
0.367556
0.999999
0.00111369
0.986323
0.239494
0.000265942
0.000859516
4.22929e-05
1.34981e-07
7.57582e-05
0.24917
0.885958
7.53417e-05
0.000106947
9.08241e-05
4.90641e-05
0.00532815
0.261824
0.995994
0.000597276
0.000873559
0.931246
0.000372106
0.00025335
3.2821e-07
0.000343552
0.000241999
3.01101e-06
0.000822453
0.00048162
0.000212498
1
0.000785867
0.969059
0.000770376
0.000149604
0.00169111
0.000169498
0.00460834
1.92403e-06
0.000704697
1
0.000551596
0.000834372
7.3457e-05
0.000310805
0.00460828
0.000910174
0.00065013
0.000152099
0.00460922
1
0.00136371
0.000625147
5.50866e-05
0.864986
0.000873145
0.000390875
0.776911
0.000785103
0.000687748
0.000834372
0.000177118
0.000146703
0.0046083
0.000872013
0.000626746
0.873977
0.00050976
0.000109698
0.116535
0.000128202
0.0016914
0.621841
0.000634161
0.331439
8.62208e-05
0.00467866
0.00467866
1
0.00522964
0.000861597
0.479914
0.000230192
0.000802394
0.056476
0.000717144
9.03073e-05
0.000758488
6.5559e-05
0.966453
0.00468052
0.000510634
0.000127065
0.00379853
0.947284
0.6663
0.74318
1
0.000560987
0.961262
0.000304385
0.000459338
1.567e-07
0.000452623
0.000457146
0.000352293
0.238329
0.00168819
0.00473513
0.00472118
8.4828e-05
8.88399e-05
1
0.00468982
2.97049e-07
0.767869
0.000305951
0.158751
0.986322
0.173144
0.000765472
0.978656
1
0.423486
0.0643513
0.000635522
1
0.000675224
1.04423e-05
0.00473767
0.16384
0.000733297
0.19389
0.000123157
0.93092
0.0315762
9.6747e-05
0.736893
0.000462439
0.000672113
1
0.00463332
0.0213192
0.00169111
0.658437
0.000372995
0.000259634
0.000332961
3.46695e-05
0.00010231
0.000280119
3.924e-05
8.98237e-05
0.159376
0.000129055
0.00261885
0.000712484
0.000622464
0.00114973
0.669596
0.00173503
0.932314
1
0.103299
0.000394245
4.44687e-05
0.000255478
8.70473e-05
0.000310555
0.882276
0.000328736
0.000273489
0.00156725
0.000622193
0.000459948
0.986323
0.00244613
7.93184e-05
0.000125406
8.49369e-05
9.4985e-05
0.000409566
0.037055
0.00168309
2.69444e-07
0.525685
0.000564256
0.00063816
0.00385497
0.00037993
0.0003433
0.000475382
0.137056
0.000109449
2.1528e-06
0.00025591
0.892251
0.00066933
9.10046e-05
0.000181617
0.000388869
0.00474128
0.00168516
7.94435e-05
4.60929e-07
0.00049181
6.30475e-05
8.55357e-05
1
0.000473649
1
0.000149201
0.986323
0.000717144
1
0.000702589
0.000467831
0.00378832
0.00029397
1
0.00167615
4.49845e-05
1
0.97877
0.969781
0.986618
0.000409961
5.11703e-05
5.11703e-05
1
0.000621339
0.000619182
0.766176
0.000256406
0.95472
4.83749e-05
0.000421905
7.11427e-05
0.00138451
1.06418e-05
0.966591
8.02013e-05
0.117553
0.000410373
4.66888e-06
9.77888e-05
6.40486e-07
1
0.165743
8.3842e-05
0.0234866
0.173528
0.000241074
0.135685
0.000334193
0.000472874
0.168114
0.000260057
0.00200472
0.194102
4.67831e-05
0.000117891
0.766176
0.17736
0.0122683
5.41968e-05
4.00846e-05
4.60952e-05
0.000461611
1.12431e-05
0.00118695
8.3842e-05
0.381424
0.906999
0.906792
0.112749
0.00097272
5.87307e-05
0.000410433
0.00171886
0.000189574
1
0.00175159
4.09756e-06
0.000412178
0.00176307
0.957855
0.945621
1
0.138499
0.00162748
0.000247534
0.978743
0.000108149
0.000167611
5.82464e-05
0.000616865
1.37849e-06
0.162236
0.0138932
4.42303e-05
0.000233654
0.892251
0.0004739
0.108115
0.000203408
1.21116e-05
1
0.00246724
0.001785
8.87524e-05
0.986323
8.29221e-05
0.000357319
0.000306019
0.000412142
0.000638302
0.000137943
0.00082824
0.000660897
5.40287e-06
0.875608
0.000641282
0.000163638
0.000925807
0.984239
7.38169e-05
0.146106
0.000601344
0.994797
0.00471789
1
0.000600021
4.73772e-06
0.000231593
2.80776e-05
0.00275011
2.82225e-05
1
0.982039
0.000215853
1.99689e-05
0.000240374
0.000469122
6.60215e-06
8.54308e-05
2.9419e-05
0.00156771
0.000972691
0.00386961
0.00377098
7.95874e-05
0.766176
0.000285699
0.00516656
5.78383e-06
5.39718e-05
1.08059e-05
0.000434053
0.000416632
8.47475e-05
1
0.000645557
0.140903
0.811741
5.67888e-06
0.0017108
0.982039
0.000340949
2.80776e-05
2.80776e-05
0.00150014
1.91738e-05
0.00175222
4.42303e-05
0.000248858
0.000505043
0.00175378
0.00547799
6.27719e-06
0.00176307
0.000635939
1.5109e-05
0.923265
3.17356e-05
8.43038e-05
0.000125514
0.00490339
6.73562e-05
0.000641282
0.890449
0.844524
0.00023994
1
0.00135626
0.000641282
0.000600244
0.000103769
1.56299e-05
2.86507e-05
0.0016319
0.000319313
0.000244776
3.00536e-05
0.000185398
8.09237e-06
0.00017631
1
1
1.30426e-05
0.000641282
0.000175562
0.78202
0.0018742
0.00931367
4.42303e-05
0.00023994
9.03428e-05
0.0154425
0.000632676
0.112016
0.13481
1.35498e-05
8.19476e-06
8.12753e-06
6.52021e-05
0.00515647
0.00553951
1.09561e-05
0.00546984
0.00550247
0.0200762
8.24117e-06
0.886463
8.12753e-06
0.000481891
2.66137e-05
1
1
0.000420944
9.19483e-06
0.000242609
0.00159855
0.00159946
0.00023994
0.000195562
0.00459518
0.00021135
6.45875e-05
0.000192073
0.000563846
0.0250097
0.00576165
8.83529e-06
0.00485376
0.000722191
0.0154866
0.000189114
0.00635224
0.00579584
6.28852e-05
0.000379595
0.00489821
0.00023994
0.00532142
8.19431e-06
8.58788e-05
0.0200942
0.029441
8.19476e-06
0.120253
6.73562e-05
0.0605499
0.000109454
0.811578
0.000244776
0.0250403
1.82048e-05
0.000904969
0.000200114
0.00579219
0.000138714
9.03428e-05
0.000290338
0.0087224
0.00548254
0.00870865
0.0303959
0.000209325
0.000246221
0.000212476
0.00270346
0.00606987
0.0395682
0.0378308
0.0191009
0.000904969
0.000265746
0.000121942
9.27356e-05
0.000222111
8.28362e-06
0.00724045
0.00703664
8.24342e-06
0.00266799
0.000925993
0.000942097
0.00529843
0.000219507
0.00086169
1
1
4.6309e-12
1
0.00523468
1
0.0678471
0.0674153
0.0087224
0.0678471
0.0427021
0.131621
0.0680669
0.0682258
0.133985
0.126721
0.000330724
0.000533115
0.000554033
0.00111781
0.00111781
0.000624294
0.000624294
0.00687485
0.0632364
0.0632463
0.0599212
0.0498988
0.0679788
0.0570109
0.000615425
0.000550782
1.4589e-05
0.000802744
0.000384424
0.000249734
0.756036
0.756053
1
0.229318
0.993158
0.815525
0.985985
3.46675e-05
0.995722
0.986323
0.919865
0.999999
1.37889e-05
0.994814
0.429858
0.738637
0.999974
0.00037238
1
1
0.00310257
1
0.386216
0.00130555
0.984798
0.60228
0.623725
1
1
1
1
1
1
0.00144015
0.979736
0.999074
0.970887
0.970884
0.970886
0.999982
4.83881e-05
8.86978e-06
0.970869
1
1
1
0.999972
1
0.243532
1.59605e-05
0.937794
1
0.999998
0.832305
1
1
1
1
1
1
1
0.999997
0.178473
4.17371e-05
0.970885
0.000139705
1
0.970887
1
0.969556
0.104654
0.970887
2.67717e-05
0.96205
0.116584
0.0509902
0.970885
0.104509
0.947162
1
0.84808
2.45254e-05
0.813294
0.00198221
0.598031
0.939933
9.08675e-05
0.939951
1
0.83232
0.0508823
0.00390747
2.85256e-05
1
1
1
0.00458481
5.13787e-05
0.993176
2.41442e-05
6.65302e-06
1
6.63133e-06
2.4397e-05
0.596663
6.62443e-06
0.489816
0.729716
0.970884
1
6.59014e-06
1
1
2.72085e-05
)
;

boundaryField
{
    patch0
    {
        type            zeroGradient;
    }
}


// ************************************************************************* //
