/*--------------------------------*- C++ -*----------------------------------*\
  =========                 |
  \\      /  F ield         | OpenFOAM: The Open Source CFD Toolbox
   \\    /   O peration     | Website:  https://openfoam.org
    \\  /    A nd           | Version:  8
     \\/     M anipulation  |
\*---------------------------------------------------------------------------*/
FoamFile
{
    version     2.0;
    format      ascii;
    class       surfaceScalarField;
    location    "0.9";
    object      alphaPhi0.water;
}
// * * * * * * * * * * * * * * * * * * * * * * * * * * * * * * * * * * * * * //

dimensions      [0 3 -1 0 0 0 0];

internalField   nonuniform List<scalar> 
2805
(
0
3.29118e-05
-9.10377e-06
1.02392e-08
-1.22277e-08
3.07784e-08
-2.42174e-07
1.44558e-07
3.70237e-07
-5.7422e-07
1.9868e-07
-1.75284e-07
-3.21193e-08
2.50606e-07
2.67766e-07
-4.64864e-07
-8.89016e-10
2.73988e-07
1.25236e-07
-1.35882e-07
-1.32166e-07
-1.00808e-07
-7.66673e-08
2.79391e-06
2.19806e-06
-1.45002e-06
-3.06367e-06
3.55087e-06
-1.0132e-06
-5.54364e-08
2.37942e-06
3.89596e-06
-9.61727e-07
-1.44899e-06
2.53975e-06
1.3092e-06
-2.98869e-06
-5.72438e-07
1.86445e-07
-2.50001e-07
4.28266e-05
1.30776e-05
-1.0488e-07
2.96055e-07
-3.50194e-07
2.04141e-07
1.02312e-08
-1.17109e-05
1.43672e-05
-2.46482e-06
2.59002e-08
-9.10045e-07
8.74397e-07
1.87534e-07
-2.64158e-07
-7.50066e-07
-3.37146e-06
-1.02197e-06
-7.8846e-07
1.65848e-06
1.15806e-06
-5.5149e-06
6.96147e-06
-3.51897e-05
6.06347e-06
1.22414e-06
-2.00323e-07
-1.67754e-07
-8.59181e-08
2.58862e-08
1.66064e-08
3.00719e-08
-6.83773e-09
-3.81385e-07
-6.07027e-07
2.33777e-05
-3.67052e-07
-1.80856e-05
-2.9941e-07
-8.16344e-08
4.81503e-07
1.99627e-07
-2.92772e-08
-5.19332e-06
2.53175e-07
-8.39264e-07
1.40139e-07
1.4794e-06
-4.46396e-08
-4.80961e-08
-2.74441e-07
1.47184e-07
-1.77687e-07
-1.21409e-06
-1.26491e-07
7.12388e-07
-9.08521e-07
9.43116e-06
1.54069e-05
-1.33775e-05
-2.24374e-06
1.90259e-06
-4.25192e-06
-1.60533e-07
-2.69492e-05
2.30491e-05
-5.81346e-06
-1.92051e-06
2.65546e-06
-7.98214e-07
-0.000301796
-4.26366e-05
0.000344433
8.10385e-08
8.89516e-08
-2.3898e-07
7.50273e-05
-8.48472e-05
2.75116e-05
1.28858e-06
1.10289e-05
3.4864e-06
0.000626647
-0.000412714
5.60257e-06
-2.16963e-07
-4.65211e-06
-9.86995e-06
1.7657e-05
1.34535e-05
0.000101487
-8.99423e-05
-1.22098e-06
6.60814e-07
5.79742e-07
5.82281e-06
-2.4581e-06
4.7132e-06
-1.98176e-06
1.86142e-06
4.29309e-06
-3.28819e-08
-3.29162e-07
3.39832e-07
2.90321e-05
0.000916832
4.7143e-07
2.16229e-06
-3.46452e-06
-1.30289e-06
5.18473e-06
-3.58072e-08
4.3886e-09
2.79528e-07
-1.36628e-06
-4.8935e-05
-9.13229e-08
1.37712e-07
1.85549e-07
1.98295e-06
8.8066e-07
-1.49848e-07
1.39826e-08
7.1161e-08
9.17516e-08
-1.78109e-08
-8.32458e-07
-4.43553e-07
3.27792e-06
8.51327e-07
-3.92852e-07
4.56634e-08
2.32802e-07
0
-9.0542e-07
-3.94844e-07
3.8132e-07
-2.64433e-07
-8.71949e-08
1.65694e-06
-2.72169e-06
0
-2.40786e-06
2.17604e-06
3.11822e-08
1.70685e-07
7.34409e-05
-3.02188e-08
-5.58632e-09
3.9005e-05
1.80481e-06
-2.34797e-06
-9.57007e-05
-6.60131e-08
-6.73292e-08
9.34694e-07
-4.03697e-06
4.00893e-07
1.14528e-06
1.63127e-06
7.68219e-08
1.2156e-06
-1.83737e-06
-8.24877e-07
1.62893e-07
0.000718549
-0.000694433
2.45851e-07
5.97335e-07
1.8175e-07
2.22818e-07
-1.12193e-06
-8.141e-08
-5.84911e-07
2.34773e-07
-1.08428e-08
3.15268e-07
-8.07077e-07
-1.20218e-06
-5.63482e-07
-5.84054e-07
8.22437e-07
-4.34405e-07
-1.42564e-06
0
-2.97928e-08
-2.58589e-08
4.04645e-07
-1.21222e-07
-1.50589e-06
1.07788e-06
1.31359e-07
-7.07346e-07
1.13745e-06
-4.46495e-07
7.40594e-08
8.69877e-09
2.31032e-07
-1.4817e-07
1.17836e-06
3.21572e-07
1.19332e-06
-3.99999e-08
-1.06808e-06
4.76537e-07
-5.71238e-07
1.28441e-07
4.01584e-08
0
-1.97948e-06
3.05503e-06
-1.41084e-07
1.41565e-09
-3.08481e-10
-1.36e-08
-6.53323e-05
0.000256454
-0.000289385
0.000295014
-5.62858e-06
2.21633e-06
5.90257e-08
-2.8929e-06
1.17789e-06
-9.594e-07
4.78428e-07
-1.59551e-07
-3.00009e-07
2.67185e-07
5.73262e-08
-2.30199e-08
0
-0.000119943
0.000198141
-7.81984e-05
1.01595e-07
-9.93048e-08
5.16612e-08
-4.19138e-07
-5.34553e-07
6.56253e-07
1.09171e-06
-4.28235e-07
3.46604e-07
-6.83473e-08
2.31975e-07
1.33371e-06
2.97685e-07
-1.06977e-07
4.80765e-07
3.13509e-05
-1.59222e-06
-7.19191e-05
7.27768e-05
5.34535e-08
-5.38046e-08
-1.11931e-07
1.79752e-07
-0.000118841
-1.10225e-06
-8.7499e-08
-2.49213e-07
7.90361e-07
2.12526e-06
-6.92519e-06
2.4566e-06
-1.5192e-05
1.25149e-05
-0.000289385
-1.76345e-07
-1.39212e-07
-1.60821e-07
3.26328e-07
1.77821e-07
0
6.99185e-08
0.000272091
2.29232e-05
-4.22726e-07
2.56391e-08
5.69277e-08
3.87302e-07
-4.76737e-05
3.40033e-05
-5.72817e-07
6.19787e-07
3.04386e-06
9.79031e-08
-0.000283273
-6.11207e-06
2.14929e-05
-0.000109906
8.39293e-05
3.80481e-08
3.26725e-07
-2.59143e-07
0.000111322
0.000160769
7.67875e-08
-9.92556e-08
-2.33727e-09
1.71881e-07
-3.34345e-07
-6.9018e-08
2.64838e-07
4.79605e-09
-4.30266e-08
7.64942e-07
6.26761e-06
-8.67892e-07
7.01217e-08
6.30117e-08
-3.54871e-07
2.47667e-07
3.87049e-08
-3.43531e-07
-1.10344e-05
-1.24698e-07
2.80177e-07
8.18008e-07
-6.00267e-08
-2.94156e-07
7.19972e-08
-2.07275e-06
-2.42904e-08
-1.06599e-07
9.08974e-08
9.95091e-08
2.95544e-07
0.000148373
-0.00019101
-1.31027e-06
1.97604e-05
-4.05321e-07
2.09608e-07
-1.70996e-07
1.41113e-06
-5.53007e-07
-2.95667e-08
-3.94709e-09
7.24926e-07
4.31338e-08
-1.56137e-07
2.12512e-07
9.2885e-07
-7.96406e-07
1.69817e-07
1.6453e-06
-1.86649e-06
-0.000283273
-1.54787e-06
7.1254e-06
-5.36958e-06
1.21559e-07
-1.07581e-06
2.35874e-07
-1.25302e-07
-9.14927e-07
1.14717e-06
1.63949e-06
8.43675e-08
-2.36613e-07
2.98283e-06
-9.38964e-07
1.14835e-06
-2.23154e-06
3.44042e-06
-1.37987e-06
-7.77702e-08
-4.06023e-07
-5.41094e-07
-0.000278286
-4.98732e-06
3.01069e-07
3.05763e-06
-2.73515e-06
-1.01081e-07
1.41801e-06
6.66883e-07
7.58223e-07
2.05313e-08
1.82123e-06
-5.30047e-07
7.93215e-08
2.29518e-06
-9.62183e-09
-1.61325e-08
1.46365e-07
2.33304e-06
-1.23714e-08
6.24447e-07
2.63574e-06
2.46987e-06
2.50356e-06
4.62208e-06
-3.16424e-08
1.16778e-06
-9.85289e-08
-1.54864e-09
9.58814e-08
8.30738e-06
-6.87315e-06
-1.44969e-07
-4.50471e-08
4.33695e-07
-6.51758e-07
4.37458e-06
-2.60043e-06
-1.56933e-06
1.00271e-06
7.9394e-06
-5.3925e-06
-6.19499e-05
-2.94183e-06
3.02596e-07
-2.58293e-06
4.29977e-06
4.50642e-07
-3.23848e-07
-0.000278286
-1.00763e-07
1.95942e-07
8.39829e-07
-1.15318e-07
-2.36338e-06
-1.99412e-07
-4.08633e-06
2.42136e-07
7.98786e-06
-2.15962e-05
-2.61971e-07
3.92863e-06
-8.94333e-07
1.18033e-06
2.38347e-07
-7.68864e-08
-8.13653e-05
-0.000174746
-0.00010354
2.43347e-06
5.86837e-06
-1.61969e-07
3.18217e-07
-4.33563e-07
2.26396e-06
-2.78859e-06
1.00544e-06
4.18326e-07
-5.47931e-07
1.29379e-07
3.81624e-07
3.70483e-08
3.80239e-07
3.58752e-07
-1.31046e-07
1.04901e-07
6.97375e-07
2.80875e-07
-1.70121e-07
-5.66911e-08
-4.87155e-09
-1.49863e-08
-2.57184e-06
8.18867e-07
-3.14864e-08
-2.01331e-08
-1.39127e-06
-8.39577e-05
-2.97978e-07
3.37543e-08
-1.63495e-06
-3.79692e-07
-9.13948e-08
1.50172e-06
-7.46432e-07
2.1154e-06
2.54303e-06
-1.24763e-07
-2.0864e-08
1.80525e-06
1.50227e-06
2.67689e-06
1.50658e-07
2.02423e-06
-2.27361e-05
-0.000174746
-9.21857e-07
8.51883e-06
-6.05583e-06
0.000116953
0.000136818
8.21536e-07
-6.35777e-07
-0.000198141
2.33952e-05
-3.76828e-07
8.52311e-07
8.18281e-08
7.02372e-06
-2.1132e-06
-1.09327e-08
-3.03209e-08
2.07144e-06
-9.66451e-07
2.88587e-06
-2.54545e-06
-1.15466e-06
-5.6227e-06
-5.22322e-05
4.15145e-07
1.81222e-06
-5.31797e-06
1.38426e-06
-5.63064e-08
1.38376e-07
-6.72956e-08
-2.04973e-06
-8.27488e-08
4.50069e-07
1.89592e-06
4.44617e-07
-1.33084e-07
-8.40422e-07
5.59816e-06
-3.53624e-06
-6.87683e-06
2.75839e-06
-1.68486e-06
-1.49468e-07
5.33572e-07
0
-3.6554e-07
-8.91287e-06
2.32484e-06
2.60502e-06
5.95529e-06
0
-8.5525e-06
5.39742e-06
-2.99345e-07
-7.8327e-06
8.02767e-08
2.47053e-07
-3.98331e-08
9.66636e-07
-1.73871e-08
-2.3332e-06
-4.16442e-07
2.88391e-07
-6.90064e-06
1.35747e-06
-1.96446e-06
-3.13867e-06
-1.56403e-08
-7.63243e-09
2.27075e-08
1.56255e-06
1.27311e-06
3.8882e-07
-1.23052e-07
1.34318e-06
1.35404e-06
2.1314e-06
3.24072e-06
-7.25462e-07
1.7018e-07
1.65876e-07
6.40244e-09
-2.62413e-08
5.53023e-07
2.46684e-06
1.81384e-06
6.33034e-06
-6.29094e-06
3.1377e-06
-1.45e-06
-5.20263e-07
-1.77758e-08
-2.61987e-06
5.51093e-06
-7.98192e-06
-3.51069e-06
-1.6759e-06
-1.37605e-06
1.75025e-06
1.46756e-06
-1.82319e-06
6.76941e-07
2.35473e-06
-1.02343e-05
1.95357e-06
-1.5367e-08
2.20126e-06
6.87185e-05
-2.56154e-06
-2.16787e-06
-2.84534e-07
-7.97979e-07
-3.0878e-08
-2.70973e-08
-9.17948e-05
0.000151577
-5.97817e-05
-1.40326e-07
4.42349e-07
6.89798e-08
9.39746e-07
0.00102709
-0.000260439
1.81082e-06
-6.09753e-07
1.36517e-06
-1.26026e-06
-1.94312e-06
9.47752e-07
7.5355e-07
-8.88421e-08
5.21463e-06
-2.15332e-06
-1.27615e-05
3.86455e-06
7.14647e-07
1.26698e-06
2.57541e-08
-1.07505e-06
-3.72804e-07
6.98866e-07
9.80109e-07
-4.30029e-08
-6.07329e-08
-1.61822e-06
3.34011e-06
-9.67845e-08
2.74602e-06
-2.93315e-08
3.16977e-07
3.96636e-06
-6.92424e-07
-6.63835e-07
1.3559e-06
6.44785e-07
-1.3277e-08
1.44632e-06
7.56288e-06
-5.7346e-08
-2.04234e-06
3.78452e-08
-1.04137e-08
3.18941e-06
2.33387e-06
-8.26838e-07
7.7994e-07
-4.07359e-06
5.89845e-06
1.91597e-06
8.4143e-07
1.80663e-06
-2.89414e-06
-1.44213e-06
2.99153e-06
-1.92366e-06
5.93105e-08
-1.88515e-07
9.92492e-07
9.56889e-06
-0.00012841
4.74579e-08
-8.1903e-08
-4.96784e-06
2.12475e-06
-3.02777e-06
0.000111322
1.00278e-06
7.02346e-07
-1.1461e-07
-2.06028e-07
2.31488e-07
7.61166e-06
2.89046e-07
7.64779e-07
1.08745e-06
-1.56894e-06
2.17336e-07
1.57422e-07
-2.9896e-07
3.85015e-06
1.47768e-06
-7.90177e-07
4.83613e-06
-4.15212e-06
-1.69326e-08
-2.34057e-08
-9.05373e-07
-3.63841e-07
2.10391e-09
3.16288e-09
-5.25986e-09
6.12908e-07
-1.20628e-06
-5.22459e-06
-7.54841e-06
-2.00483e-07
-4.27002e-06
1.82044e-07
-1.61513e-07
-1.10946e-06
-4.77787e-07
5.4331e-07
-6.48147e-07
-5.93031e-07
5.64854e-07
1.2756e-06
-2.67037e-06
-4.67136e-07
6.50248e-07
1.65187e-06
-2.51553e-08
2.7277e-07
3.21564e-09
1.96577e-10
-2.20891e-09
3.46434e-07
1.3738e-06
-1.33286e-06
-7.06691e-06
5.47265e-05
-4.35989e-05
-4.33746e-07
-3.97169e-07
3.36275e-07
-1.40096e-06
3.74465e-06
2.23383e-06
-3.45213e-05
3.74302e-05
1.19714e-06
2.52317e-06
1.41056e-06
-6.84737e-07
-2.68871e-08
2.23758e-06
1.30176e-06
6.33269e-07
-1.76076e-06
-2.66972e-06
8.22732e-06
-1.11311e-07
1.63013e-07
1.59961e-06
5.55785e-06
-6.90498e-07
-1.19315e-06
1.57889e-06
-1.51979e-06
-2.1852e-07
2.2397e-07
7.06596e-07
-1.64399e-07
-6.11746e-12
-1.87313e-08
1.93278e-07
-1.51921e-06
-9.67276e-06
1.90925e-06
2.68083e-07
-1.21676e-07
-4.14559e-08
2.13989e-06
6.27931e-06
1.19462e-06
6.68264e-07
7.61325e-07
1.68394e-07
-9.88624e-07
0
-5.5217e-08
1.23507e-07
-2.20541e-06
6.78605e-07
-4.53109e-07
-1.67988e-06
-1.51295e-05
9.95075e-06
-1.53591e-08
-2.39407e-06
9.47893e-07
-1.27663e-06
2.45998e-06
-9.28602e-07
1.92434e-06
4.0075e-07
-1.63874e-07
-7.40842e-07
1.24286e-06
3.45717e-06
8.01972e-06
-1.90408e-06
-5.57243e-08
-2.5636e-06
3.93534e-06
-3.63561e-08
-6.69459e-09
-4.54476e-07
7.51063e-07
-3.88518e-08
-2.39209e-07
2.46803e-07
1.27978e-07
1.41428e-07
-4.34502e-07
-8.29485e-07
-3.88371e-08
-1.89102e-07
5.25767e-07
1.17012e-06
4.24635e-07
1.16165e-06
-5.57176e-06
-1.2324e-06
-9.63955e-07
-2.64844e-07
-6.58307e-06
9.16701e-07
-1.55016e-07
-4.7149e-06
-1.72088e-07
1.80509e-06
5.27549e-07
-9.39226e-07
8.51346e-07
7.35979e-07
-4.84211e-07
-2.01769e-06
-4.68859e-07
-7.97572e-07
1.77633e-08
-3.35688e-08
-7.14562e-08
1.87378e-06
2.87489e-06
1.82172e-06
3.24081e-07
3.17676e-06
0
2.71289e-06
-3.00641e-07
1.40544e-07
2.22708e-07
4.55457e-07
-1.03449e-06
6.0429e-09
-3.34146e-08
-1.50885e-06
1.68091e-06
5.50805e-06
6.1316e-08
-7.34005e-08
-1.39288e-06
-1.20632e-06
6.8299e-08
2.72337e-06
-2.14247e-06
1.31974e-07
-2.9501e-07
1.4188e-06
-2.53622e-06
-2.62676e-06
-1.12217e-06
1.70256e-06
-6.52251e-08
1.34063e-08
9.07888e-07
8.15905e-06
4.32493e-07
-9.62635e-06
-5.40427e-06
1.54839e-07
-5.27211e-08
-5.8155e-09
-1.61959e-06
-7.83632e-06
9.83596e-07
0
-7.93481e-07
-1.15944e-08
9.2231e-08
-1.67152e-06
-1.06899e-06
9.95168e-07
-5.48959e-07
-1.41887e-07
-6.98558e-07
3.31971e-07
6.6904e-07
7.13007e-07
-2.87107e-07
1.38516e-07
4.34809e-07
3.37067e-06
5.42923e-07
3.11488e-08
7.15144e-07
-1.86495e-07
-2.49038e-07
1.39812e-06
-2.63492e-06
-1.85122e-06
2.98039e-05
3.61723e-06
9.56035e-06
-1.08702e-05
-1.0585e-06
-1.14623e-09
5.79568e-07
-2.69681e-07
4.10765e-06
-1.49664e-06
-2.42004e-09
-1.49986e-08
1.93302e-07
-4.84777e-08
-1.7831e-06
-9.82406e-07
5.75914e-07
4.87492e-07
1.62332e-06
2.94799e-07
6.85398e-08
-9.8603e-08
6.9495e-06
1.53503e-07
-1.35452e-05
2.65499e-06
-2.52047e-06
3.98878e-08
-1.06493e-06
9.35182e-10
4.81701e-10
1.73902e-09
-1.84197e-09
8.58322e-07
-3.50941e-08
1.36549e-06
1.95576e-06
0.000312189
0.00061139
-9.79619e-07
-1.73264e-07
-1.29902e-06
-1.1123e-05
6.15323e-07
6.83952e-08
-3.07145e-07
-1.16124e-06
7.07363e-08
-1.99383e-08
1.30901e-06
-6.48812e-05
-2.08958e-05
0.000394439
7.98358e-06
-8.33272e-07
1.17152e-05
-5.44778e-08
-4.58753e-07
6.85354e-06
-2.69029e-06
2.23835e-06
0.000542026
0.000451954
-1.95206e-06
1.33904e-06
1.07318e-06
-4.92703e-07
-2.68774e-07
-8.56116e-07
-1.43253e-06
3.16428e-06
3.05193e-06
2.39101e-08
-4.31144e-08
1.33756e-08
-1.57886e-08
1.46983e-06
-1.29631e-05
5.81077e-10
-1.57201e-07
-1.16826e-05
1.04229e-08
-5.1761e-08
-8.01782e-07
-1.11678e-07
5.40835e-07
6.09654e-07
-3.99064e-08
-2.62215e-08
-0.000274712
0.000892666
-6.99106e-06
7.26981e-06
5.57989e-07
-1.58467e-06
-1.62803e-07
5.15629e-08
1.53747e-09
-2.78698e-09
-2.58332e-06
3.26784e-06
-4.41305e-11
-2.04008e-06
6.59875e-08
1.65534e-07
1.71329e-06
-3.23912e-06
2.82709e-06
1.65453e-07
-2.52088e-08
-2.24181e-06
9.81428e-07
3.80654e-08
-3.09531e-07
-1.3762e-07
0.000175868
-2.47811e-07
3.91183e-05
2.70555e-06
-1.06248e-07
-9.60625e-07
3.72235e-06
4.08917e-06
2.49842e-07
-5.18014e-07
-1.39786e-06
1.67164e-07
-2.39074e-07
1.01199e-06
-1.70442e-06
-2.10014e-07
-2.94932e-07
-4.06142e-10
-9.53566e-08
5.89498e-08
3.60857e-06
0
8.12232e-07
4.70551e-06
1.30124e-06
-1.97042e-06
1.9197e-06
1.19223e-08
0
1.07361e-06
-1.06901e-08
-3.5715e-08
-3.84372e-06
-4.77184e-09
-1.45339e-06
-1.81592e-06
7.85292e-09
1.34188e-06
-2.25029e-06
2.11575e-06
-8.13604e-08
3.92304e-08
-2.45447e-07
8.73537e-08
8.36609e-07
6.08004e-07
-2.07698e-07
6.5349e-07
-6.44775e-07
4.08445e-08
-6.95267e-08
-5.46837e-06
4.55731e-06
-9.47939e-08
-4.87572e-07
-9.73724e-07
5.41095e-08
-2.34294e-08
1.50017e-07
1.30949e-05
-1.32043e-05
3.66085e-06
-1.13459e-06
-7.91239e-07
-2.92866e-06
-2.87434e-08
3.33933e-07
7.14102e-06
-7.60531e-07
-1.99405e-09
1.24848e-06
1.34731e-05
-1.08153e-06
0.00033808
-0.000313478
-1.75587e-05
6.44374e-07
-1.56882e-06
-7.82892e-06
-1.14102e-06
-2.44913e-06
1.2978e-06
-2.87023e-07
2.43489e-09
8.68297e-08
-8.92181e-07
-3.08337e-07
-4.5252e-06
8.06052e-08
-1.00446e-07
-1.08769e-06
3.45026e-09
-3.96033e-09
1.09226e-06
-2.71159e-06
4.20359e-06
-7.61516e-06
1.65989e-06
-2.47679e-09
-6.04055e-08
0.00017127
0.000240665
1.83382e-06
3.97859e-06
-1.26911e-07
-9.32432e-10
-7.95728e-07
-1.33721e-07
-4.44533e-09
1.46221e-07
-2.28787e-06
4.4092e-06
9.25952e-05
0.000245486
7.97693e-08
-9.18147e-08
5.05141e-06
-2.04243e-07
-4.42181e-06
6.19696e-06
-1.59829e-07
-7.78009e-06
0.000121888
-3.64671e-08
9.6684e-08
6.42943e-08
-1.32651e-08
-4.80909e-06
1.56333e-07
2.84435e-08
-4.47163e-06
1.43818e-06
0.00077527
3.30737e-05
-7.71449e-08
2.2853e-08
1.60653e-06
-1.26136e-06
5.20722e-06
-1.28829e-06
-1.19249e-05
2.46328e-05
-1.23902e-05
-1.33288e-10
7.01899e-06
-8.36207e-08
1.04034e-05
-3.61953e-07
6.01829e-08
3.00378e-07
2.00726e-06
0.000242874
5.89953e-06
-5.44736e-07
-8.83974e-08
-4.79276e-05
-2.54526e-05
7.33006e-05
9.18433e-09
2.03735e-05
4.87965e-06
-8.48195e-09
-1.99762e-07
-5.11292e-06
7.45919e-09
-5.42022e-07
4.43109e-09
-1.21627e-07
-3.14175e-06
2.57415e-06
1.6156e-06
1.78157e-05
-9.48871e-06
-5.73657e-06
6.20395e-07
-1.18753e-05
9.31707e-06
0.00102321
7.18333e-05
-6.22644e-05
1.58977e-07
8.4078e-06
-7.97987e-06
9.55494e-06
3.38569e-08
-1.29257e-07
2.56097e-06
-3.00499e-06
2.84823e-10
-4.05353e-06
-5.81358e-07
-8.50984e-10
-8.1948e-11
9.80206e-08
-1.3996e-06
-8.05863e-06
8.3933e-06
-2.58818e-09
2.38302e-10
2.79869e-08
6.23885e-08
-1.53847e-10
-1.15929e-05
0
4.71698e-06
-2.05431e-07
-1.44836e-08
1.48327e-06
-4.19916e-06
-1.3473e-08
0
-1.06248e-05
1.49547e-06
-8.49229e-06
1.04185e-07
-1.1877e-07
-3.10983e-06
4.49882e-06
-2.77619e-07
1.98475e-07
5.32816e-06
-4.923e-06
-3.01715e-08
2.19224e-06
-4.54967e-08
2.24678e-06
-4.88261e-07
-4.62476e-07
-5.45369e-06
6.21463e-06
9.13337e-09
-5.05405e-08
4.61391e-06
2.56815e-07
-2.14941e-09
-1.07684e-07
-1.28725e-06
0.000196145
0.000551026
-0.000747113
2.01382e-06
8.90427e-08
1.96361e-08
-2.63041e-06
2.27867e-07
-2.28712e-07
-1.07981e-05
1.06915e-05
1.30144e-07
-1.04463e-06
-3.58856e-08
-1.68051e-05
9.01226e-08
3.81376e-06
-4.72314e-07
-3.24969e-07
1.72093e-06
-1.69477e-06
8.91709e-07
-1.45129e-06
-1.03041e-05
5.94365e-05
0.000372892
2.98238e-08
3.11568e-08
5.85355e-07
-2.90406e-05
1.59027e-07
1.32831e-07
-4.38878e-05
4.10757e-05
-4.35654e-08
-1.23276e-09
2.32001e-10
1.22411e-05
-8.1352e-06
1.60822e-06
-1.35604e-07
-2.45885e-08
-3.24063e-06
-2.9174e-06
1.28752e-05
-3.40477e-07
4.18614e-07
1.00029e-05
-3.26471e-06
3.4115e-06
-1.41963e-06
-2.47343e-08
4.99583e-08
3.30802e-06
-3.34879e-06
9.74498e-12
1.40333e-09
-7.83645e-11
-7.59838e-11
3.09435e-09
-2.85015e-09
-1.60812e-10
-1.30248e-09
-7.62093e-07
7.25611e-07
2.71269e-06
-1.1676e-06
0.000251512
-0.000251512
3.78697e-07
-0.000237333
0.000288216
5.42132e-08
-4.11503e-08
2.21795e-10
-2.29122e-10
6.89741e-05
-1.32906e-05
2.7425e-05
2.30125e-08
9.10721e-10
1.90306e-08
1.39644e-07
1.21068e-07
-1.36524e-06
1.1867e-05
-1.58926e-06
1.24548e-06
-4.13937e-06
8.84815e-10
2.81244e-08
1.76869e-06
-4.27764e-07
2.72359e-05
-6.71487e-10
-1.33521e-08
5.10891e-05
0.000213886
6.31582e-06
-6.20851e-06
4.07573e-06
-1.71609e-07
1.39794e-06
1.07118e-05
-1.88149e-06
-2.12974e-05
-3.18341e-05
4.98292e-06
-2.70903e-07
0.000177446
-3.10932e-08
-3.30147e-06
-4.96242e-06
-2.61369e-07
7.25469e-08
5.74314e-06
-6.35595e-05
-0.000356005
2.03838e-07
-1.51009e-06
-1.90045e-06
1.09209e-07
-2.61237e-05
-0.000136206
6.74292e-05
-6.38276e-07
-2.55366e-05
2.16286e-05
1.12661e-10
1.43376e-07
-1.72125e-06
2.80515e-06
-5.95483e-06
3.14531e-09
-9.45923e-08
2.54194e-06
-7.44296e-09
9.24707e-06
9.60444e-06
1.96225e-06
-9.84226e-10
3.46458e-06
-3.52833e-06
9.17784e-05
-0.000183813
2.01681e-07
-1.67999e-07
4.14614e-06
-9.72813e-07
1.76486e-07
4.5567e-06
-6.76162e-06
-5.32572e-08
1.43209e-07
-1.92858e-05
-8.05258e-08
5.10221e-08
2.72254e-05
-3.97468e-05
-2.59055e-06
-8.72033e-10
0.000987456
4.30231e-05
4.43792e-11
-2.05695e-10
1.57679e-10
-3.64231e-07
6.70559e-09
-1.74012e-06
6.1191e-07
-3.4726e-10
-1.46918e-09
-2.54773e-07
-4.23758e-10
-8.20457e-07
-6.72295e-07
-0.000438392
0.000438392
0.0011879
4.06034e-06
-7.29281e-07
-6.92869e-06
-1.85807e-10
-5.6627e-08
4.32369e-06
-4.33328e-06
4.67079e-06
-2.30275e-08
2.37522e-09
-1.49416e-09
3.733e-05
2.90071e-05
-6.63372e-05
1.03832e-06
-1.22984e-06
-4.80578e-06
1.26e-07
1.91596e-06
-1.03374e-06
1.2075e-06
8.69057e-08
2.19886e-08
-4.54494e-10
7.67981e-08
1.43087e-05
3.48043e-06
-1.01495e-06
-2.40351e-08
-6.72612e-10
3.91897e-07
1.48107e-07
0
2.3837e-06
2.85011e-06
1.9128e-06
-1.99757e-06
0.00018501
-0.000623402
-1.00539e-07
-0.000149188
-0.000278719
0.00030191
1.96248e-06
1.3583e-09
1.91808e-06
1.19329e-05
-1.91382e-05
-1.14189e-07
1.48863e-07
1.4496e-07
1.42596e-05
-1.02021e-08
9.64048e-08
-8.06047e-10
4.20979e-06
-5.53541e-06
-0.000622557
2.52714e-05
-7.97628e-08
2.22879e-07
8.12203e-05
-7.6794e-05
3.04479e-06
-3.20884e-06
3.38215e-08
-1.11056e-08
-6.44627e-08
3.02493e-06
5.48013e-05
3.25821e-05
2.99023e-06
-5.2884e-07
2.97884e-08
2.79139e-09
-7.43199e-09
3.38683e-11
-4.65804e-10
5.75784e-05
7.64615e-07
-7.43733e-07
2.93485e-08
-3.4264e-08
-1.20031e-06
-1.72894e-10
-7.77835e-08
-4.53264e-06
4.10476e-06
-1.3244e-06
2.96801e-07
-2.58959e-07
1.41186e-05
-4.31736e-06
-8.36576e-08
2.89169e-08
-7.21555e-07
-9.61692e-05
0.000105804
1.32534e-07
-2.6505e-06
3.22268e-10
-5.86463e-10
1.25435e-05
-3.00832e-06
1.18519e-09
1.83145e-05
-1.87321e-05
-4.04465e-05
6.14224e-06
5.66842e-06
8.98953e-06
2.22495e-06
-4.04153e-08
3.31197e-06
-1.70757e-06
1.89378e-06
-4.70911e-07
-1.59081e-06
5.24809e-06
1.65084e-06
2.01461e-06
1.1585e-06
-9.31355e-05
-2.0304e-10
-1.51453e-06
-6.57302e-06
-1.02047e-06
3.13066e-07
5.59348e-08
-1.65005e-07
1.38445e-07
1.60402e-07
6.90167e-06
-6.6596e-06
-2.76742e-05
5.12462e-05
2.27951e-09
-9.51295e-10
-2.31014e-05
-1.30947e-07
2.17242e-07
6.17735e-06
-2.11716e-06
2.04402e-07
1.08547e-06
-4.11751e-06
5.39686e-06
-3.56389e-06
1.40682e-08
6.69991e-08
-1.95426e-08
6.05293e-07
-4.16935e-07
-1.69927e-06
1.54398e-06
1.52437e-07
0.000399885
7.96048e-07
1.03857e-06
-9.06021e-07
2.14309e-06
-1.7899e-06
-9.64423e-08
3.75213e-06
-8.71903e-07
3.83956e-09
-3.54733e-05
5.4753e-05
-0.000128775
-1.65922e-07
8.67987e-06
0.00122341
1.7971e-05
0.0012788
1.06893e-06
-3.85184e-10
0
2.96631e-09
-0.00104178
2.599e-05
-2.06634e-08
-6.33125e-07
8.22004e-06
8.10176e-08
6.99401e-10
-8.7902e-10
1.11424e-06
-1.1981e-06
2.61254e-10
-2.64966e-07
-2.60407e-10
1.56584e-06
1.70866e-06
-1.99858e-07
5.83293e-08
0.000144328
-9.76197e-05
1.61323e-08
-1.12652e-09
1.72066e-08
3.60868e-07
-2.49588e-09
-1.70111e-07
3.77607e-06
-8.6536e-07
9.1185e-06
2.0881e-06
-2.80563e-06
-0.000858774
4.9862e-06
-2.62876e-07
-1.84998e-05
-6.19702e-06
2.06422e-07
-2.58384e-07
1.79657e-07
2.94149e-09
-3.20708e-09
5.19918e-08
0.000178161
-0.000239441
-1.9347e-07
2.22284e-07
8.21897e-05
1.51583e-08
1.48724e-07
-6.95471e-08
-1.48108e-06
2.74258e-06
-5.41245e-07
-0.000300183
0.000342534
-8.9679e-08
4.26899e-07
6.70335e-08
-1.23447e-07
-7.19092e-10
5.48401e-05
-5.67252e-05
5.79184e-06
-1.44188e-07
-8.36344e-08
-8.57538e-13
0.000104633
4.39187e-05
0.000680263
-0.000772725
-0.000103626
-2.95415e-06
5.33389e-06
1.04119e-06
-9.97906e-07
2.004e-06
2.36059e-08
2.71245e-07
-1.60835e-06
1.80006e-07
1.86963e-08
1.80765e-06
-6.39664e-08
5.67263e-05
-5.84497e-05
-5.48417e-05
5.29376e-05
4.114e-09
-1.97115e-09
4.22681e-06
-1.23633e-07
1.83738e-06
4.21246e-06
-3.14991e-05
1.48558e-06
2.76503e-06
-6.50166e-07
1.55581e-05
-1.06205e-05
-6.10331e-05
5.84462e-05
2.13973e-10
-5.35336e-10
0.000285945
-0.000178534
-0.000198129
-0.000382024
0.000394024
0
-1.26111e-08
3.53677e-06
-2.20315e-06
-6.99839e-10
-0.000198682
6.5542e-06
-4.42359e-06
-3.52188e-05
-2.81528e-06
2.09526e-09
8.16979e-06
-1.03394e-06
1.78896e-07
3.25226e-09
-1.55934e-08
-2.35182e-06
-0.000854706
-2.34688e-07
3.17202e-07
1.25681e-06
7.8416e-06
-7.57897e-06
-2.60105e-07
1.88244e-06
-2.46964e-07
6.41095e-08
-5.63692e-05
9.09742e-08
2.06206e-06
1.09569e-05
-3.07425e-06
-2.63281e-07
2.3374e-07
-4.9987e-08
3.64735e-06
-6.36952e-11
-2.48666e-08
1.10088e-06
-1.29089e-06
-0.0015613
0.00131816
5.04732e-08
1.92681e-07
-0.000221616
-0.00120784
0.000335129
1.72335e-06
1.83374e-08
5.63637e-05
-5.75645e-05
2.40899e-08
-1.9771e-08
3.24689e-06
-5.29321e-05
4.86962e-05
6.76099e-05
-9.29697e-05
2.53598e-05
1.30501e-06
-5.29255e-08
-4.2151e-08
-1.74469e-06
1.2791e-06
-1.77521e-06
-4.96167e-07
8.09023e-08
-7.44165e-05
7.93001e-06
-1.25747e-06
4.79504e-05
-0.000106255
2.75795e-07
9.70225e-07
-1.20951e-06
5.75672e-05
-5.80575e-05
2.09711e-08
-3.02647e-05
6.64567e-05
-0.000104508
0.000497823
-0.000644988
1.51396e-08
1.14531e-06
-1.10182e-06
1.57683e-06
-4.40094e-07
1.96192e-06
3.25702e-06
-0.000100161
-0.00015723
1.54854e-06
4.41231e-07
4.56018e-07
-2.00162e-05
-1.69103e-06
6.50081e-07
3.04803e-06
4.96623e-06
-0.00073838
-4.46724e-07
4.896e-07
-2.74939e-06
-3.33939e-06
1.7264e-06
-4.11122e-08
4.97651e-07
-0.000728043
0.00081052
4.94755e-07
1.31425e-07
4.53454e-10
-1.31895e-08
2.38635e-08
-5.18588e-08
5.8123e-05
-5.73896e-05
-5.54822e-08
2.35545e-07
-1.43232e-10
-1.84198e-05
4.4403e-05
-4.90213e-05
-4.03387e-06
7.16833e-06
6.86756e-05
3.15773e-06
-3.86526e-08
-1.80833e-07
2.44786e-07
-0.00105996
0.000183067
6.19605e-06
-1.43976e-06
1.11042e-06
2.17883e-07
2.13219e-06
9.78409e-07
3.43939e-06
-1.8083e-06
-2.29623e-07
1.79421e-07
1.02462e-08
-1.09875e-08
4.40545e-05
-6.72445e-06
1.67597e-07
7.87826e-06
-1.91148e-06
-1.31246e-06
1.23251e-06
3.80136e-06
-5.08357e-06
-2.79071e-05
-0.000137372
3.54245e-07
-7.0411e-07
0.000127445
-3.18801e-06
3.36362e-06
6.59267e-07
8.5118e-06
-7.17748e-06
-4.648e-07
-2.75405e-06
-5.03316e-07
4.72093e-08
0
1.84551e-06
-7.48302e-05
-1.27408e-07
-5.7338e-05
-0.000739527
5.69409e-05
-5.49967e-05
9.75717e-07
8.53426e-08
2.74317e-07
-3.96884e-06
-6.80213e-07
3.9061e-07
4.19761e-06
-7.07856e-06
5.80366e-06
2.6742e-06
-9.63507e-08
2.24282e-06
3.78828e-06
1.13424e-06
6.69727e-07
4.80952e-06
-3.761e-06
3.60641e-06
2.53955e-08
-0.00169462
0.00104592
-0.000379841
-5.42902e-07
5.00138e-07
-2.95364e-07
1.04635e-06
-3.65263e-07
2.9358e-07
4.45883e-07
1.49331e-06
-5.65738e-07
5.52782e-08
5.17562e-06
1.49485e-08
5.22003e-06
-1.37413e-06
2.6114e-05
1.29423e-06
-1.40015e-06
0.000317931
-0.000217806
7.81984e-05
-9.52279e-06
-1.79192e-07
4.54222e-06
-2.10372e-06
0
4.44847e-06
2.29799e-07
-0.000469657
0.000446948
2.27103e-05
0.000536599
-0.000262953
1.14612e-06
1.33386e-07
-7.18474e-07
1.36784e-09
-1.63634e-09
-1.69484e-08
4.49597e-05
-0.000181813
-0.00111152
0.000405143
1.36284e-06
-1.36354e-06
1.20794e-08
-7.60737e-07
-8.2731e-08
-2.17397e-07
8.27798e-06
-1.10297e-05
-0.000108672
-0.000348149
0.000895833
4.96555e-06
-2.08661e-06
1.10199e-05
-4.80558e-06
-0.000839413
0.000641112
5.10268e-06
1.62739e-05
-1.98537e-05
-1.28081e-08
-1.10369e-09
-2.51849e-06
5.95975e-06
-9.0232e-08
4.41676e-07
-4.26617e-09
1.43028e-05
-7.47045e-06
6.95957e-07
2.38941e-06
3.21682e-05
1.18863e-05
2.5659e-06
-0.000308701
-7.28577e-06
1.15095e-05
6.75914e-08
5.19838e-06
-3.47486e-06
-1.28498e-07
5.78372e-07
-5.2503e-07
-2.84007e-07
7.03249e-08
3.5326e-05
-6.46555e-06
6.18549e-06
1.20221e-05
-5.37745e-06
2.91801e-07
3.17375e-06
9.18007e-07
2.83953e-07
-9.3111e-06
3.23127e-06
8.35309e-08
-0.000562103
3.16839e-07
-8.95324e-06
1.65012e-06
1.14195e-08
-0.000808554
0.000186569
8.99156e-06
5.72986e-06
-2.03247e-07
-6.89384e-05
-0.000107319
1.42961e-06
8.77578e-06
-4.22989e-06
5.54067e-06
7.00453e-07
-1.00958e-06
9.37277e-07
4.59591e-06
-7.92685e-06
-0.000491453
4.60602e-06
-2.56229e-07
-2.65526e-06
-6.9341e-05
-1.80591e-07
1.2329e-06
6.65305e-05
2.90037e-06
-8.5497e-06
-3.23821e-05
-1.42291e-06
1.08266e-06
-5.63694e-05
-3.32573e-05
-1.01308e-05
-4.27431e-06
1.04843e-05
-1.31441e-06
2.28789e-07
4.44094e-06
4.92756e-05
2.81626e-06
-1.97618e-07
3.60119e-07
1.1245e-06
-1.23625e-06
2.35183e-07
7.18307e-06
-1.90319e-06
-3.04602e-06
2.98261e-06
-3.92285e-05
3.874e-05
4.92299e-05
-0.000936104
0.000445408
7.51777e-05
-8.19022e-05
2.72841e-06
-0.000123798
6.04232e-07
-8.98354e-07
-6.59674e-06
6.8166e-06
-1.53033e-09
-2.55934e-10
4.96841e-06
-3.59654e-07
-2.92395e-07
-6.53995e-07
-7.37952e-06
3.91141e-06
-4.88926e-05
-1.24117e-06
9.29049e-08
3.86012e-05
3.65766e-05
-2.64343e-09
-0.000403681
-2.33376e-07
0.0002329
-0.000227399
-0.000347994
3.9297e-05
0.000223573
-0.000218299
8.05429e-07
7.72109e-07
-0.000636731
0.000253772
1.0693e-05
-1.00563e-05
-0.000204331
0.000163123
-0.000155265
-1.06914e-05
5.57556e-06
9.52281e-06
2.58031e-05
2.15526e-06
0
-5.27078e-10
-2.58734e-05
6.77714e-06
0.000151315
-0.000166077
3.83889e-06
-6.7894e-08
0.000164784
-0.000164441
1.18194e-07
0.000214285
-7.00578e-05
-0.000133119
0.00013037
-1.05227e-05
3.09978e-07
0.00024755
-0.000103744
1.6343e-06
4.12344e-06
3.15991e-06
1.82546e-05
-4.44224e-05
6.13074e-06
-5.23939e-06
-0.000103976
-0.000175687
1.52196e-07
0
-5.41561e-07
3.33696e-06
3.10452e-09
-1.33265e-06
2.12813e-06
-1.09908e-06
1.77918e-06
-1.14472e-07
0
4.79265e-08
-2.56246e-08
4.97134e-07
-0.000243157
0.000284874
2.50345e-06
-1.44769e-06
-1.4709e-05
1.65447e-06
1.47191e-06
9.44857e-06
-7.53666e-06
-2.77129e-06
-0.000179406
-2.06111e-06
5.04874e-05
4.06904e-05
-3.13388e-05
-6.87104e-06
2.13093e-07
-1.08238e-06
-8.07322e-07
-7.95103e-08
3.33334e-07
1.24801e-07
-0.000119049
7.11859e-07
3.04755e-07
-7.25304e-07
9.29543e-07
-7.02077e-06
7.36661e-06
3.54354e-05
3.57771e-05
-7.12117e-05
1.03113e-05
-5.98781e-06
1.32123e-06
-1.35126e-06
1.09199e-07
-1.61461e-06
1.65236e-06
2.4049e-09
-2.65421e-06
2.02411e-06
-0.000289986
5.41809e-05
7.98611e-06
-4.15259e-06
1.47558e-07
-1.48005e-07
-2.035e-05
0.000816942
-2.17324e-06
1.35715e-06
-4.82306e-06
-3.43543e-05
1.4511e-06
-1.36203e-06
1.47073e-06
7.84633e-06
-9.07423e-07
3.0992e-05
-3.25842e-05
8.23069e-07
3.69233e-09
-3.0833e-09
-6.30001e-07
-0.000827722
0.000347049
-6.94196e-07
5.04391e-06
2.15644e-07
9.74059e-07
-6.34867e-07
2.66708e-06
-9.22177e-09
-2.33963e-11
-8.78695e-06
9.48676e-06
-2.21172e-07
4.57621e-07
1.19996e-05
-1.30662e-06
6.73757e-06
-2.92331e-05
4.12327e-05
-1.12488e-06
7.47332e-05
-4.03237e-07
1.15773e-05
1.30808e-06
2.54361e-08
-7.80745e-09
-2.98188e-07
-2.58032e-05
7.62906e-05
-7.98739e-06
3.7785e-06
-9.63885e-08
2.0996e-07
7.34352e-06
-0.000251047
0.000124637
3.74969e-06
-0.000526272
-2.69262e-06
1.9074e-06
-1.21577e-06
-1.0632e-06
3.14186e-06
-9.03925e-06
8.32632e-07
-6.6287e-06
-0.000317362
-8.63673e-05
-2.29268e-06
1.34395e-06
0.000426364
4.3417e-05
-5.40469e-07
2.49334e-07
1.81626e-08
-3.87978e-07
7.75818e-08
-1.08898e-07
-2.51233e-09
0.000261413
-1.50695e-06
1.56091e-06
2.47465e-05
-1.69142e-05
-6.47862e-07
3.07844e-10
-1.75355e-06
2.32103e-06
5.99556e-09
-6.65191e-09
9.26716e-05
-8.95298e-05
-1.45696e-06
1.42083e-06
-6.2625e-06
3.916e-05
-1.88795e-06
1.27844e-06
-4.0246e-07
-7.70509e-06
6.94189e-06
-1.11441e-06
-1.51865e-07
9.27134e-07
-2.6627e-07
1.17795e-07
2.93789e-06
-2.07101e-06
8.64158e-05
-0.000205513
-1.3822e-07
1.43322e-08
-4.43277e-08
-1.11781e-07
-3.479e-08
4.60875e-08
2.48029e-06
-1.65347e-06
1.48606e-07
-0.000138431
-4.65985e-05
0.000198963
1.62789e-07
-7.88933e-07
-2.7229e-07
9.53487e-07
-2.39311e-06
1.7715e-06
2.14505e-05
-2.06739e-05
3.75646e-08
-7.62906e-05
8.36341e-05
-1.47892e-05
1.74824e-05
1.0641e-09