/*--------------------------------*- C++ -*----------------------------------*\
  =========                 |
  \\      /  F ield         | OpenFOAM: The Open Source CFD Toolbox
   \\    /   O peration     | Website:  https://openfoam.org
    \\  /    A nd           | Version:  8
     \\/     M anipulation  |
\*---------------------------------------------------------------------------*/
FoamFile
{
    version     2.0;
    format      ascii;
    class       volScalarField;
    location    "0.9";
    object      epsilon;
}
// * * * * * * * * * * * * * * * * * * * * * * * * * * * * * * * * * * * * * //

dimensions      [0 2 -3 0 0 0 0];

internalField   nonuniform List<scalar> 
1924
(
0.0276327
0.0369422
0.0671092
0.0738652
0.037031
0.0750449
0.0771903
0.0778893
0.0780295
0.064779
0.0778455
0.0756463
0.0370134
0.0759278
0.104784
0.105061
0.0391949
0.0755071
0.0248522
0.0772457
0.0253288
0.0490651
0.0366047
0.0787729
0.0482366
0.0738553
0.0792492
0.0524537
0.0457216
0.0750723
0.0401542
0.0525501
0.0243918
0.0396965
0.054416
0.0360005
0.0665083
0.0473674
0.0747729
0.0412598
0.0723503
0.0303377
0.0703907
0.0352575
0.0649536
0.0434832
0.0251638
0.0719057
0.00678416
0.0128862
0.0219282
0.0354112
0.0477065
0.0161526
0.0391372
0.0668204
0.0238803
0.0648841
0.0519804
0.088819
0.0311303
0.104356
0.0303757
0.0753741
0.0146455
0.0722306
0.100113
0.040888
0.0477085
0.024372
0.0295147
0.104958
0.0753049
0.074966
0.0724165
0.0364992
0.0756003
0.0718977
0.0760402
0.0272803
0.0751765
0.0809552
0.0729478
0.025557
0.0230092
0.0414153
0.0541677
0.10286
0.00787596
0.0298446
0.0965582
0.081387
0.0430668
0.0525907
0.0335693
0.00907235
0.0759503
0.0749827
0.0876218
0.0339098
0.0607853
0.0339675
0.0871051
0.0833064
0.0584484
0.0704916
0.0632676
0.0528149
0.0884906
0.054213
0.0765505
0.0559156
0.0421472
0.074961
0.0779144
0.0225776
0.0683224
0.102108
0.0431649
0.0780997
0.0137526
0.0102251
0.0147964
0.0221262
0.103589
0.0674282
0.0398969
0.0710544
0.0596391
0.0240127
0.0766624
0.064927
0.242444
0.0755023
0.0363054
0.0652095
0.0513646
0.057697
0.0822777
0.0479773
0.0681573
0.102894
0.11166
0.205661
0.0728488
0.0121761
0.058613
0.0343424
0.0897761
0.0397347
0.072359
0.0197478
0.040289
0.0716509
0.0756241
0.0697384
0.0105892
0.0544246
0.0770159
0.515662
0.0765238
0.0364614
0.074011
0.0104589
0.068446
0.0682494
0.0740783
0.0135283
0.0761586
0.0655017
0.03083
0.0774589
0.0707899
0.0840948
0.0686575
0.0548222
0.0759179
0.113572
0.0340447
0.0769573
0.0744143
0.10076
0.0750454
0.0751253
0.0044505
0.032885
0.0431963
0.0777499
0.0759181
0.07693
0.0527595
0.0782497
0.074021
0.0778477
0.0773515
0.02066
0.0792284
0.0565899
0.0668741
0.0524786
0.0711867
0.042011
0.071841
0.0781728
0.0342035
0.0748736
0.0782086
0.0439297
0.0378425
0.313441
0.0110836
0.0666825
0.0929581
0.0778754
0.078073
0.0707882
0.0872382
0.0574127
0.0782088
0.0716263
0.0671113
0.0700057
0.0738677
0.0941467
0.0777423
0.0795178
0.0742163
0.0715212
0.078656
0.0534852
0.169499
0.0917592
0.0681496
0.143799
0.0802161
0.690563
0.0940778
0.0781736
0.0762986
0.0217927
0.0977835
0.0732092
0.0930285
0.0455914
0.344014
0.0385117
0.0774528
0.0736965
0.0722498
0.0718927
0.0323823
0.0140102
0.0789304
0.0710777
0.0732906
0.102069
0.0731016
0.0706842
0.0690622
0.077765
0.0747686
0.0772206
0.0845121
0.0718331
0.0477375
0.0725994
0.0280927
0.0716352
0.0401924
0.0577151
0.0511261
0.07227
0.0296429
0.0752272
0.0924357
0.0775311
0.07651
0.0805912
0.0731087
0.0655416
0.0258587
0.0312644
0.0926993
0.0792225
0.0129022
0.0753346
0.0721933
0.0179481
0.079277
0.0733694
0.0782676
0.0743412
0.0817597
0.10258
0.0150798
0.0685316
0.102882
0.0461351
0.0724978
0.103193
0.0331847
0.0755814
0.0945554
0.0876528
0.0783032
0.0777325
0.0305532
0.0934423
0.0696895
0.0703265
0.0411404
0.0345461
0.0795467
0.0443282
0.0730543
0.0329808
0.0755369
0.0793715
0.0785681
0.0778454
0.0739158
0.0524087
0.0774201
0.0707701
0.0792914
0.0739344
0.0770551
0.0748946
0.0740042
0.0731897
0.0659379
0.100881
0.0439888
0.07858
0.0732648
0.0822405
0.0919921
0.0786778
0.0808175
0.0780103
0.0739644
0.0739229
0.0446999
0.0469444
0.105079
0.103322
0.17632
0.104463
0.0308633
0.0774401
0.0626342
0.129723
0.258582
0.103393
0.0418786
0.0734118
0.00383715
0.0836168
0.0638804
0.00817048
0.0841788
0.10551
0.102715
0.0940346
0.0508515
0.0783166
0.0440869
0.0486247
0.0813826
0.0790119
0.0948449
0.0782756
0.0710773
0.098961
0.0784635
0.0743057
0.105377
0.105128
0.0456145
0.104146
0.103371
0.0738001
0.0772052
0.0790437
0.0606162
0.0931681
0.0741304
0.099133
0.0730374
0.0784893
0.311062
0.0431774
0.0790186
0.102095
0.0801487
0.371847
0.0670429
0.0444832
0.0741076
0.101665
0.0144983
0.07488
0.0464101
0.0446315
0.0267485
0.0932316
0.0844911
0.104303
0.0588723
0.0598127
0.0848034
0.042966
0.0850023
0.0784361
0.0838983
0.074218
0.0780761
0.105532
0.042978
0.0761369
0.105833
0.0492702
0.0827433
0.0434149
0.0483812
0.103188
0.0712223
0.0755561
0.0432344
0.0802306
0.0946671
0.077434
0.085445
0.0432256
0.0807864
0.0785099
0.101748
0.0225622
0.0795902
0.0459373
0.0591885
0.069307
0.0793401
0.0583071
0.104547
0.780868
0.0876092
0.0748779
0.0791969
0.100193
0.101856
0.0427769
0.0797641
0.0762708
0.0656925
0.080314
0.0950511
0.103036
0.0428082
0.101205
0.0760585
0.0436066
0.0338931
0.0414287
0.046652
0.101924
0.10517
0.0846763
0.0801703
0.0755012
0.0537121
0.0422765
0.0764378
0.0921825
0.0462804
0.075928
0.0751731
0.0911611
0.103489
0.0983572
0.0885121
0.0833065
0.0926327
0.105653
0.0430005
0.0496203
0.07161
0.10053
0.0831577
0.0717341
0.0265421
0.0804354
0.0424533
0.0765369
0.105939
0.0853202
0.101201
0.0958974
0.0674981
0.0702361
0.105802
0.10173
0.0532685
0.0446367
0.043614
0.0710789
0.10477
0.0600147
0.042192
0.102769
0.0769112
0.082704
0.0982485
0.080129
0.102945
0.104409
0.0436391
0.0805696
0.0831742
0.0977797
0.0429421
0.103332
0.0805138
0.100097
0.0813674
0.0818386
0.0775401
0.0299476
0.0541652
0.0889275
0.0408805
0.0954973
0.0417523
0.0388927
0.0459424
0.106446
0.0842838
0.0463492
0.0354947
0.0461102
0.0425136
0.0715642
0.0251577
0.0765825
0.095282
0.0725347
0.0760726
0.0746085
0.104203
0.0776356
0.0694997
0.0936649
0.0963493
0.0418196
0.0577932
0.039916
0.0313289
0.0207886
0.0640053
0.0754542
0.0449224
0.0423462
0.0427906
0.095297
0.0551824
0.0436974
0.0790603
0.0772607
0.0763002
0.0420463
0.090395
0.083519
0.0533547
0.0993451
0.0791951
0.105275
0.0344376
0.0447174
0.106187
0.0425159
0.0431036
0.100473
0.0849335
0.101045
0.0145503
0.027145
0.106138
0.0284173
0.0872248
0.0733548
0.0482214
0.0421914
0.0416464
0.0175217
0.021929
0.104639
0.106226
0.0708377
0.106909
0.0368484
0.00839191
0.105101
0.0898103
0.0740704
0.041313
0.100904
0.0822641
0.0797849
0.0450373
0.0270503
0.0465106
0.100673
0.0349855
0.0719199
0.0425276
0.104403
0.0819083
0.0460449
0.0124864
0.0715079
0.101905
0.0840878
0.0775515
0.0439776
0.0892566
0.0773726
0.0309338
0.101051
0.084049
0.0379244
0.0963969
0.0542148
0.0712343
0.0334422
0.0410679
0.00944438
0.051989
0.0581465
0.0704422
0.0984385
0.0894994
0.0961173
0.0417224
0.0474406
0.0534455
0.10325
0.0433868
0.104494
0.0730976
0.0476907
0.042375
0.0975088
0.0519464
0.084204
0.0315783
0.101912
0.038898
0.0789438
0.0459955
0.0381245
0.0437684
0.0270119
0.0785216
0.0945078
0.102968
0.0745467
0.0447625
0.0966777
0.0415096
0.0413127
0.0424035
0.0836951
0.0281879
0.073788
0.102837
0.0910059
0.0895149
0.0959187
0.0220086
0.0333066
0.106543
0.106767
0.105952
0.10768
0.0442791
0.0903369
0.106523
0.0323501
0.10527
0.0281795
0.0751166
0.095265
0.0753118
0.0470248
0.0412472
0.105508
0.0332437
0.0812425
0.0418854
0.043408
0.0885056
0.0319431
0.0511347
0.04399
0.0172619
0.0524342
0.0884969
0.0462829
0.10317
0.040674
0.0416441
0.0241186
0.089519
0.0253888
0.0453459
0.084562
0.0973581
0.037184
0.105828
0.00887563
0.0804449
0.10188
0.0820882
0.0301655
0.0954415
0.0511659
0.143492
0.0122639
0.0454595
0.0995346
0.0979836
0.0346748
0.0670316
0.0428288
0.108324
0.0449243
0.107127
0.0699961
0.106727
0.0340531
0.0191862
0.102562
0.0862898
0.0216898
0.0753742
0.206386
0.0410924
0.0304074
0.0406567
0.0969996
0.044409
0.0540077
0.0926697
0.0683208
0.0693037
0.0849013
0.0772032
0.0140141
0.0149443
0.105039
0.0787905
0.103057
0.105482
0.0929323
0.0439698
0.0308784
0.0465193
0.0418001
0.0263549
0.0480777
0.0979051
0.0476207
0.0632309
0.0865907
0.0444171
0.106911
0.0407482
0.0459671
0.0258848
0.0714442
0.0297423
0.0836315
0.0967102
0.0457994
0.0835073
0.0799278
0.100079
0.051163
0.10752
0.0708371
0.0301399
0.0380374
0.107119
0.0868676
0.0429008
0.0909243
0.105826
0.0104247
0.0523992
0.0409148
0.0306061
0.0455339
0.0453586
0.0760103
0.0862037
0.104328
0.0714824
0.102005
0.0957684
0.0413975
0.0814034
0.102564
0.0663248
0.0332411
0.0407081
0.0267412
0.107871
0.0224223
0.0449101
0.0438154
0.0330031
0.0883659
0.106887
0.0228202
0.106063
0.100574
0.042289
0.108287
0.095995
0.0279946
0.0986283
0.0885805
0.0400262
0.0482385
0.0442281
0.047712
0.082606
0.109307
0.0960101
0.029283
0.0738139
0.0291591
0.0495201
0.0465771
0.0040327
0.0367058
0.049878
0.0437217
0.106554
0.0398186
0.0982045
0.100804
0.0205613
0.0850556
0.0994372
0.0677121
0.0341179
0.040682
0.0187259
0.08245
0.108769
0.107396
0.0681356
0.0780617
0.0287362
0.0829951
0.0199367
0.0459715
0.0221204
0.0280007
0.0944758
0.0402387
0.0253297
0.0979555
0.0415672
0.0773713
0.0875514
0.0255796
0.0147888
0.052306
0.0744453
0.0400009
0.108927
0.0791176
0.0550932
0.0452745
0.0831453
0.0746024
0.101027
0.10639
0.0425795
0.0903632
0.0152496
0.10822
0.107705
0.107284
0.104618
0.105265
0.0299428
0.102008
0.0236895
0.080208
0.0403231
0.0136942
0.0483032
0.0448109
0.108191
0.0182941
0.0506275
0.108634
0.0500702
0.0761476
0.10311
0.0466962
0.0151509
0.0921544
0.0173638
0.047275
0.0412426
0.0836648
0.0819407
0.101771
0.0438304
0.0180457
0.0979215
0.0255768
0.0895797
0.0891282
0.102066
0.0521275
0.042128
0.107671
0.0463191
0.0364117
0.0656576
0.043354
0.110136
0.0389748
0.0523411
0.0922694
0.085002
0.0428378
0.0966829
0.0148071
0.029569
0.0548608
0.0434105
0.0660609
0.0186489
0.105106
0.0319077
0.0457785
0.341087
0.0395629
0.107147
0.0265183
0.0260914
0.112743
0.0202798
0.110388
0.0409439
0.0914432
0.0400753
0.0930917
0.0184097
0.0792153
0.108091
0.044837
0.0506892
0.0175035
0.0859101
0.0410934
0.0827319
0.0490127
0.105496
0.0747756
0.0573173
0.0531619
0.103582
0.0448848
0.106216
0.053774
0.0279731
0.0417235
0.0475168
0.0972029
0.0444065
0.0624868
0.0711088
0.0377582
0.0453833
0.0793616
0.0908889
0.0424063
0.0389192
0.0840752
0.0348662
0.107508
0.108497
0.0239059
0.0467622
0.0161366
0.0320972
0.11094
0.0397652
0.0437374
0.106326
0.0767282
0.105747
0.0582481
0.0432833
0.0172708
0.110258
0.0556571
0.105089
0.0996157
0.056463
0.0549732
0.0408594
0.045673
0.10838
0.109172
0.108078
0.0231923
0.0853347
0.0861935
0.0645227
0.0414721
0.087893
0.0761382
0.0744669
0.0336984
0.0275452
0.0982515
0.103773
0.014388
0.0146769
0.042092
0.0778935
0.0654724
0.0452327
0.0246756
0.10639
0.1018
0.0973353
0.111046
0.0491273
0.0919143
0.053896
0.0514643
0.0650011
0.0429221
0.109111
0.0203993
0.0440109
0.0731952
0.082449
0.0478905
0.109252
0.0880345
0.0376228
0.0565339
0.0239974
0.039003
0.0714183
0.0220803
0.0859205
0.107905
0.0463418
0.091577
0.0156734
0.11042
0.0154335
0.0435667
0.0401072
0.057234
0.0760522
0.0317811
0.11082
0.0408596
0.0459369
0.261795
0.0575505
0.0410671
0.00834879
0.0232568
0.0352353
0.0856811
0.0577536
0.110825
0.061265
0.0418128
0.108643
0.263592
0.260278
0.0446501
0.0586352
0.107999
0.0716989
0.076285
0.0168545
0.0386772
0.0424677
0.0296286
0.265815
0.051449
0.00565989
0.0252213
0.0548273
0.104237
0.0495096
0.018922
0.0996453
0.0366997
0.0460714
0.0836747
0.0239498
0.0441335
0.106432
0.0398353
0.0470065
0.0576262
0.0223228
0.111542
0.106046
0.101031
0.0479221
0.0646167
0.0405606
0.266915
0.0857642
0.1094
0.0929387
0.110846
0.040411
0.0371141
0.0464573
0.100065
0.0925122
0.0131352
0.0409901
0.111216
0.0502659
0.0130459
0.0213543
0.0428321
0.263136
0.0452125
0.0419502
0.259471
0.0149348
0.0652441
0.091836
0.110903
0.105798
0.109257
0.108578
0.0229276
0.0841343
0.0475402
0.0603387
0.059717
0.0502625
0.266474
0.0447774
0.0301688
0.0144787
0.062311
0.0847946
0.0421578
0.108673
0.0343627
0.0255739
0.0160386
0.0942729
0.104716
0.0604939
0.0613659
0.0773264
0.0999458
0.0931586
0.020673
0.111985
0.0302431
0.0637622
0.0379502
0.0310994
0.0432313
0.0545522
0.0480168
0.271033
0.0388277
0.0519521
0.0650355
0.259631
0.108118
0.0132302
0.0470815
0.0392354
0.0202774
0.0843944
0.111035
0.0628729
0.0367583
0.0740889
0.0391786
0.045515
0.0159911
0.0849873
0.105649
0.0386435
0.10957
0.0202146
0.111822
0.0479213
0.0310972
0.109322
0.0423897
0.102204
0.0389852
0.0647526
0.0588926
0.045177
0.0404293
0.0373279
0.111171
0.0217568
0.0187602
0.00618405
0.274298
0.101448
0.0437335
0.061193
0.106327
0.106178
0.102922
0.108325
0.0344088
0.0745079
0.0355076
0.109524
0.101223
0.0657275
0.0127636
0.0121414
0.112249
0.04077
0.0661487
0.0370485
0.146494
0.064506
0.0378647
0.101853
0.0383367
0.0895428
0.257891
0.0934759
0.0322755
0.0282071
0.0660955
0.09598
0.037291
0.05436
0.0265659
0.042813
0.0214823
0.0222824
0.0387601
0.0335445
0.106485
0.0496024
0.0926396
0.0174268
0.01717
0.0837928
0.0456763
0.11211
0.0481674
0.0284204
0.0199218
0.00755653
0.0819861
0.102175
0.030255
0.0965899
0.273254
0.0552948
0.109904
0.0670729
0.0453316
0.0989904
0.0397274
0.0900522
0.0139292
0.0668391
0.0205903
0.104147
0.109457
0.064217
0.0408592
0.521992
0.0578877
0.0437282
0.0128009
0.110775
0.0941378
0.0838868
0.0825322
0.525609
0.0328502
0.105353
0.0706182
0.529168
0.0105124
0.0431873
0.101896
0.0776321
0.0157258
0.099428
0.0695583
0.0178611
0.102511
0.0883521
0.0948136
0.0399163
0.0674956
0.519786
0.100068
0.102363
0.0169646
0.0745012
0.110939
0.0229645
0.0678414
0.0628143
0.0226436
0.0946586
0.0221887
0.111936
0.525755
0.52605
0.0169586
0.0289706
0.0959083
0.0581671
0.0694892
0.0891646
0.0792881
0.0752363
0.0411651
0.104326
0.108598
0.0209372
0.529283
0.0926294
0.106082
0.27176
0.0172568
0.024208
0.0152619
0.0157032
0.0922504
0.0134934
0.0459657
0.110256
0.0498904
0.0824121
0.109955
0.0689933
0.0451868
0.0659002
0.520992
0.520493
0.111948
0.105524
0.0129279
0.536766
0.0516776
0.0139842
0.0454374
0.0822324
0.0183876
0.085703
0.0688042
0.0337919
0.0176868
0.0245323
0.0870106
0.109896
0.0293709
0.0832888
0.0440202
0.243039
0.0830251
0.0886684
0.082334
0.0937961
0.0130822
0.0840762
0.0402336
0.0108497
0.0882415
0.0955886
0.0332642
0.543507
0.11364
0.060601
0.0198395
0.0731194
0.0589431
0.0971878
0.0434041
0.0993062
0.0697734
0.0449129
0.0692589
0.0833278
0.0984003
0.0337774
0.0757607
0.0951838
0.0669443
0.0206668
0.0493057
0.0562906
0.0120482
0.0955515
0.108629
0.10605
0.0692787
0.0414452
0.0775475
0.0159963
0.0829887
0.0684153
0.543907
0.0943773
0.106527
0.0175388
0.280295
0.0834502
0.0799865
0.10003
0.106209
0.0688655
0.0754288
0.0632092
0.0465273
0.0609586
0.0728122
0.109991
0.268212
0.0953494
0.101417
0.109771
0.0877396
0.0982848
0.0538525
0.0458269
0.0437267
0.0671971
0.040627
0.0969552
0.0680246
0.500222
0.0615865
0.0831954
0.0521971
0.110827
0.0678342
0.0992974
0.0140198
0.109874
0.0105291
0.110884
0.017097
0.0721137
0.0324635
0.296707
0.280796
0.541369
0.0441031
0.0293335
0.0627969
0.0768654
0.0101567
0.0417692
0.0577356
0.0133164
0.067929
0.101681
0.106116
0.0159631
0.0941012
0.0947689
0.0358196
0.0651389
0.016148
0.066082
0.0563599
0.0790399
0.0641578
0.0433089
0.0174322
0.08365
0.0966418
0.0674832
0.0546256
0.0838783
0.0473541
0.0107329
0.148621
0.100112
0.122577
0.151481
0.062448
0.151379
0.0664368
0.105654
0.142499
0.0640719
0.236437
0.136804
0.0616819
0.0836691
0.0402042
0.128795
0.173463
0.0465187
0.0442787
0.0630629
0.1057
0.0417063
0.0574654
0.0999148
0.0457024
0.0207788
0.0188032
0.137467
0.0444459
0.0659095
0.0616118
0.297986
0.055632
0.0225481
0.290809
0.0486649
0.0610903
0.292355
0.0427532
0.0187729
0.0118152
0.123494
0.305946
0.0615095
0.0650094
0.0829263
0.0542693
0.0574501
0.0929836
0.0475483
0.152489
0.130454
0.0659277
0.0606181
0.0952724
0.108238
0.101336
0.0563058
0.0409196
0.0302121
0.439312
0.479691
0.218856
0.0197677
0.0832032
0.108204
0.0589408
0.0608314
0.108319
0.0820432
0.0446851
0.109025
0.0495115
0.0624925
0.106808
0.0828125
0.0433465
0.0429056
0.100353
0.126174
0.108982
0.0237603
0.345064
0.0215033
0.0935594
0.0480776
0.0500459
0.0487676
0.372378
0.0495518
0.0272661
0.0426298
0.251029
0.0529116
0.105561
0.102927
0.0450062
0.100628
0.0487626
0.310904
0.0441543
0.512743
0.508282
0.0831448
0.0638973
0.0535004
0.234198
0.0487518
0.10533
0.0419168
0.103166
0.0504833
0.0981144
0.00753425
0.106725
0.133589
0.0703457
0.0471841
0.597398
0.0699151
0.102926
0.046626
0.0472902
0.566918
0.0453051
0.34854
0.164479
0.105431
0.105485
0.569133
0.230334
0.0441814
0.581188
0.108246
0.0461408
0.0602894
0.0451125
0.0988891
0.0458784
0.239336
0.0417812
0.103887
0.0638946
0.0569961
0.102574
0.00725939
0.0527792
0.100183
0.0910713
0.0986449
0.0446738
0.0478436
0.612818
0.0917024
0.0993319
0.0444352
0.0990519
0.0449384
0.080469
0.017292
0.0222877
0.044166
0.103755
0.0812634
0.0149661
0.0489255
0.139783
0.332508
0.0962411
0.093635
0.134645
0.10002
0.102004
0.144266
0.0436102
0.0444911
0.0441652
0.0420517
0.465689
0.453225
0.0412063
0.228653
0.147288
0.130327
0.0428509
0.0159688
0.0440025
0.0938292
0.0416034
0.0137118
0.0161657
0.099333
0.0427004
0.0882028
0.304884
0.61702
0.0958
0.0956046
0.0494352
0.0889951
0.0412045
0.0789092
0.0959923
0.12729
0.44412
0.0419771
0.245878
0.0410466
0.261133
0.0780379
0.275467
0.145836
0.277942
0.0903878
0.479648
0.0932982
0.227055
0.0425775
0.0944617
0.249917
0.125047
0.0425466
0.0931911
0.101339
0.151422
0.0892504
0.0637198
0.0861876
0.241344
0.0396049
0.090462
0.0745937
0.435977
0.58316
0.296446
0.285506
0.145611
0.22283
0.287652
0.232562
0.0756391
0.0841536
0.0840189
0.0407773
0.422573
0.216421
0.119242
0.0391544
0.0818844
0.0773432
0.0407658
0.0895234
0.0848522
0.0414828
0.397712
0.217031
0.04188
0.492971
0.240599
0.447291
0.216931
0.0693964
0.077835
0.0111843
0.00630786
0.244929
0.00597052
0.168973
0.0176113
0.152456
0.0912343
0.283667
0.0891877
0.160547
0.163585
0.0999495
0.162414
0.155089
0.104112
0.264747
0.514548
0.602957
0.48784
0.25467
0.535254
0.274037
0.365064
0.159737
0.168892
0.0982763
0.176474
0.17559
0.0999047
0.558016
0.0704459
0.0755947
0.0814237
0.0858304
0.0834272
0.0356728
0.051151
0.0233122
0.0162286
0.0189149
0.0393419
0.0139544
0.0440318
0.00739264
0.0146663
0.0323362
0.0134245
0.075491
0.0182733
0.0733459
0.0359659
0.0445756
0.0433369
0.00384722
0.0279072
0.0453769
0.0472956
0.0191718
0.0494376
0.0219315
0.0303
0.0282407
0.0259424
0.0152053
0.041668
0.0148978
0.0184498
0.0166276
0.0559968
0.0375751
0.0147485
0.0175835
0.00758636
0.00930301
0.0339157
0.0481402
0.0434795
0.0205838
0.0415054
0.0381731
0.0155194
0.0179166
0.0415558
0.0169251
0.0723843
0.00938261
0.00358208
0.0118686
0.0154259
0.0165298
0.00974264
0.0175664
0.0111852
0.0112859
0.0102879
0.00950976
0.0112609
0.05529
0.0482858
0.00626741
0.0724325
0.0195799
0.0136894
0.0305631
0.00525951
0.0154999
0.0161365
0.0470401
0.00581899
0.0228908
0.0184164
0.0106555
0.0133194
0.00708994
0.00861335
0.0114615
0.0832445
0.0129179
0.0472082
0.0325405
0.00580571
0.0829194
0.00533438
0.022116
0.0128922
0.0248688
0.0459639
0.0841824
0.00369252
0.00744622
0.0124355
0.0459011
0.0774182
0.0080893
0.0842701
0.0451874
0.0123939
0.044986
0.0820971
0.014075
0.0441604
0.0146249
0.010721
0.00881331
0.015288
0.0443421
0.0115866
0.0189186
0.0831509
)
;

boundaryField
{
    patch0
    {
        type            epsilonWallFunction;
        value           nonuniform List<scalar> 
4010
(
0.0276327
0.0276327
0.0369422
0.0369422
0.0671092
0.0671092
0.0738652
0.0738652
0.037031
0.037031
0.0750449
0.0750449
0.0771903
0.0771903
0.0778893
0.0778893
0.0780295
0.0780295
0.064779
0.064779
0.0778455
0.0778455
0.0756463
0.0756463
0.0370134
0.0370134
0.0759278
0.0759278
0.104784
0.104784
0.105061
0.105061
0.0391949
0.0391949
0.0755071
0.0755071
0.0248522
0.0248522
0.0772457
0.0772457
0.0253288
0.0253288
0.0490651
0.0490651
0.0366047
0.0366047
0.0787729
0.0787729
0.0482366
0.0482366
0.0738553
0.0738553
0.0792492
0.0792492
0.0524537
0.0524537
0.0457216
0.0457216
0.0750723
0.0750723
0.0401542
0.0401542
0.0525501
0.0525501
0.0243918
0.0243918
0.0396965
0.0396965
0.054416
0.054416
0.0360005
0.0360005
0.0665083
0.0665083
0.0473674
0.0473674
0.0747729
0.0747729
0.0412598
0.0412598
0.0723503
0.0723503
0.0303377
0.0303377
0.0703907
0.0703907
0.0352575
0.0352575
0.0649536
0.0649536
0.0434832
0.0434832
0.0251638
0.0251638
0.0719057
0.0719057
0.00678416
0.00678416
0.0128862
0.0128862
0.0219282
0.0219282
0.0354112
0.0354112
0.0477065
0.0477065
0.0161526
0.0161526
0.0391372
0.0391372
0.0668204
0.0668204
0.0238803
0.0238803
0.0648841
0.0648841
0.0519804
0.0519804
0.088819
0.088819
0.0311303
0.0311303
0.104356
0.104356
0.0303757
0.0303757
0.0753741
0.0753741
0.0146455
0.0146455
0.0722306
0.0722306
0.100113
0.100113
0.040888
0.040888
0.0477085
0.0477085
0.024372
0.024372
0.0295147
0.0295147
0.104958
0.104958
0.0753049
0.0753049
0.074966
0.074966
0.0724165
0.0724165
0.0364992
0.0364992
0.0756003
0.0756003
0.0718977
0.0718977
0.0760402
0.0760402
0.0272803
0.0272803
0.0751765
0.0751765
0.0809552
0.0809552
0.0729478
0.0729478
0.025557
0.025557
0.0230092
0.0230092
0.0414153
0.0414153
0.0541677
0.0541677
0.10286
0.10286
0.00787596
0.00787596
0.0298446
0.0298446
0.0965582
0.0965582
0.081387
0.081387
0.0430668
0.0430668
0.0525907
0.0525907
0.0335693
0.0335693
0.00907235
0.00907235
0.0759503
0.0759503
0.0749827
0.0749827
0.0876218
0.0876218
0.0339098
0.0339098
0.0607853
0.0607853
0.0339675
0.0339675
0.0871051
0.0871051
0.0833064
0.0833064
0.0584484
0.0584484
0.0704916
0.0704916
0.0632676
0.0632676
0.0528149
0.0528149
0.0884906
0.0884906
0.054213
0.054213
0.0765505
0.0765505
0.0559156
0.0559156
0.0421472
0.0421472
0.074961
0.074961
0.0779144
0.0779144
0.0225776
0.0225776
0.0683224
0.0683224
0.102108
0.102108
0.0431649
0.0431649
0.0780997
0.0780997
0.0137526
0.0137526
0.0102251
0.0102251
0.0147964
0.0147964
0.0221262
0.0221262
0.103589
0.103589
0.0674282
0.0674282
0.0398969
0.0398969
0.0710544
0.0710544
0.0596391
0.0596391
0.0240127
0.0240127
0.0766624
0.0766624
0.064927
0.064927
0.242444
0.242444
0.0755023
0.0755023
0.0363054
0.0363054
0.0652095
0.0652095
0.0513646
0.0513646
0.057697
0.057697
0.0822777
0.0822777
0.0479773
0.0479773
0.0681573
0.0681573
0.102894
0.102894
0.11166
0.11166
0.11166
0.205661
0.205661
0.205661
0.0728488
0.0728488
0.0121761
0.0121761
0.058613
0.058613
0.0343424
0.0343424
0.0897761
0.0897761
0.0397347
0.0397347
0.072359
0.072359
0.0197478
0.0197478
0.0197478
0.040289
0.040289
0.0716509
0.0716509
0.0756241
0.0756241
0.0697384
0.0697384
0.0105892
0.0105892
0.0544246
0.0544246
0.0770159
0.0770159
0.515662
0.515662
0.0765238
0.0765238
0.0364614
0.0364614
0.074011
0.074011
0.0104589
0.0104589
0.068446
0.068446
0.0682494
0.0682494
0.0740783
0.0740783
0.0135283
0.0135283
0.0761586
0.0761586
0.0655017
0.0655017
0.03083
0.03083
0.0774589
0.0774589
0.0707899
0.0707899
0.0840948
0.0840948
0.0686575
0.0686575
0.0548222
0.0548222
0.0759179
0.0759179
0.113572
0.113572
0.0340447
0.0340447
0.0769573
0.0769573
0.0744143
0.0744143
0.10076
0.10076
0.0750454
0.0750454
0.0751253
0.0751253
0.0044505
0.0044505
0.032885
0.032885
0.0431963
0.0431963
0.0777499
0.0777499
0.0759181
0.0759181
0.07693
0.07693
0.0527595
0.0527595
0.0782497
0.0782497
0.074021
0.074021
0.0778477
0.0778477
0.0773515
0.0773515
0.02066
0.02066
0.02066
0.0792284
0.0792284
0.0565899
0.0565899
0.0668741
0.0668741
0.0524786
0.0524786
0.0711867
0.0711867
0.042011
0.042011
0.071841
0.071841
0.0781728
0.0781728
0.0342035
0.0342035
0.0748736
0.0748736
0.0782086
0.0782086
0.0439297
0.0439297
0.0378425
0.0378425
0.313441
0.313441
0.313441
0.0110836
0.0110836
0.0666825
0.0666825
0.0929581
0.0929581
0.0778754
0.0778754
0.078073
0.078073
0.0707882
0.0707882
0.0872382
0.0872382
0.0574127
0.0574127
0.0782088
0.0782088
0.0716263
0.0716263
0.0671113
0.0671113
0.0700057
0.0700057
0.0738677
0.0738677
0.0941467
0.0941467
0.0777423
0.0777423
0.0795178
0.0795178
0.0742163
0.0742163
0.0715212
0.0715212
0.078656
0.078656
0.0534852
0.0534852
0.169499
0.169499
0.0917592
0.0917592
0.0681496
0.0681496
0.143799
0.143799
0.0802161
0.0802161
0.690563
0.690563
0.690563
0.0940778
0.0940778
0.0781736
0.0781736
0.0762986
0.0762986
0.0217927
0.0217927
0.0217927
0.0977835
0.0977835
0.0732092
0.0732092
0.0930285
0.0930285
0.0455914
0.0455914
0.344014
0.344014
0.0385117
0.0385117
0.0774528
0.0774528
0.0736965
0.0736965
0.0722498
0.0722498
0.0718927
0.0718927
0.0323823
0.0323823
0.0140102
0.0140102
0.0789304
0.0789304
0.0710777
0.0710777
0.0732906
0.0732906
0.102069
0.102069
0.0731016
0.0731016
0.0706842
0.0706842
0.0690622
0.0690622
0.077765
0.077765
0.0747686
0.0747686
0.0772206
0.0772206
0.0845121
0.0845121
0.0718331
0.0718331
0.0477375
0.0477375
0.0725994
0.0725994
0.0280927
0.0280927
0.0716352
0.0716352
0.0401924
0.0401924
0.0577151
0.0577151
0.0511261
0.0511261
0.07227
0.07227
0.0296429
0.0296429
0.0752272
0.0752272
0.0924357
0.0924357
0.0775311
0.0775311
0.07651
0.07651
0.0805912
0.0805912
0.0731087
0.0731087
0.0655416
0.0655416
0.0258587
0.0258587
0.0312644
0.0312644
0.0312644
0.0926993
0.0926993
0.0792225
0.0792225
0.0129022
0.0129022
0.0753346
0.0753346
0.0721933
0.0721933
0.0179481
0.0179481
0.079277
0.079277
0.0733694
0.0733694
0.0782676
0.0782676
0.0743412
0.0743412
0.0817597
0.0817597
0.10258
0.10258
0.0150798
0.0150798
0.0685316
0.0685316
0.102882
0.102882
0.0461351
0.0461351
0.0724978
0.0724978
0.103193
0.103193
0.0331847
0.0331847
0.0331847
0.0755814
0.0755814
0.0945554
0.0945554
0.0876528
0.0876528
0.0783032
0.0783032
0.0777325
0.0777325
0.0305532
0.0305532
0.0934423
0.0934423
0.0696895
0.0696895
0.0703265
0.0703265
0.0411404
0.0411404
0.0345461
0.0345461
0.0795467
0.0795467
0.0443282
0.0443282
0.0730543
0.0730543
0.0329808
0.0329808
0.0755369
0.0755369
0.0793715
0.0793715
0.0785681
0.0785681
0.0778454
0.0778454
0.0739158
0.0739158
0.0524087
0.0524087
0.0774201
0.0774201
0.0707701
0.0707701
0.0792914
0.0792914
0.0739344
0.0739344
0.0770551
0.0770551
0.0748946
0.0748946
0.0740042
0.0740042
0.0731897
0.0731897
0.0659379
0.0659379
0.100881
0.100881
0.0439888
0.0439888
0.07858
0.07858
0.0732648
0.0732648
0.0822405
0.0822405
0.0919921
0.0919921
0.0786778
0.0786778
0.0808175
0.0808175
0.0780103
0.0780103
0.0739644
0.0739644
0.0739229
0.0739229
0.0446999
0.0446999
0.0469444
0.0469444
0.105079
0.105079
0.103322
0.103322
0.17632
0.17632
0.104463
0.104463
0.0308633
0.0308633
0.0774401
0.0774401
0.0626342
0.0626342
0.129723
0.129723
0.258582
0.258582
0.103393
0.103393
0.0418786
0.0418786
0.0734118
0.0734118
0.00383715
0.00383715
0.0836168
0.0836168
0.0638804
0.0638804
0.00817048
0.00817048
0.0841788
0.0841788
0.10551
0.10551
0.102715
0.102715
0.0940346
0.0940346
0.0508515
0.0508515
0.0783166
0.0783166
0.0440869
0.0440869
0.0486247
0.0486247
0.0813826
0.0813826
0.0790119
0.0790119
0.0948449
0.0948449
0.0782756
0.0782756
0.0710773
0.0710773
0.098961
0.098961
0.0784635
0.0784635
0.0743057
0.0743057
0.105377
0.105377
0.105128
0.105128
0.0456145
0.0456145
0.104146
0.104146
0.103371
0.103371
0.0738001
0.0738001
0.0772052
0.0772052
0.0790437
0.0790437
0.0606162
0.0606162
0.0931681
0.0931681
0.0741304
0.0741304
0.099133
0.099133
0.0730374
0.0730374
0.0784893
0.0784893
0.311062
0.311062
0.0431774
0.0431774
0.0790186
0.0790186
0.102095
0.102095
0.0801487
0.0801487
0.371847
0.371847
0.371847
0.0670429
0.0670429
0.0444832
0.0444832
0.0741076
0.0741076
0.101665
0.101665
0.0144983
0.0144983
0.07488
0.07488
0.0464101
0.0464101
0.0446315
0.0446315
0.0267485
0.0267485
0.0267485
0.0932316
0.0932316
0.0844911
0.0844911
0.104303
0.104303
0.0588723
0.0588723
0.0598127
0.0598127
0.0848034
0.0848034
0.042966
0.042966
0.0850023
0.0850023
0.0784361
0.0784361
0.0838983
0.0838983
0.074218
0.074218
0.0780761
0.0780761
0.105532
0.105532
0.042978
0.042978
0.0761369
0.0761369
0.105833
0.105833
0.0492702
0.0492702
0.0827433
0.0827433
0.0434149
0.0434149
0.0483812
0.0483812
0.103188
0.103188
0.0712223
0.0712223
0.0755561
0.0755561
0.0432344
0.0432344
0.0802306
0.0802306
0.0946671
0.0946671
0.077434
0.077434
0.085445
0.085445
0.0432256
0.0432256
0.0807864
0.0807864
0.0785099
0.0785099
0.101748
0.101748
0.0225622
0.0225622
0.0795902
0.0795902
0.0459373
0.0459373
0.0591885
0.0591885
0.069307
0.069307
0.0793401
0.0793401
0.0583071
0.0583071
0.104547
0.104547
0.780868
0.780868
0.780868
0.0876092
0.0876092
0.0748779
0.0748779
0.0791969
0.0791969
0.100193
0.100193
0.101856
0.101856
0.0427769
0.0427769
0.0797641
0.0797641
0.0762708
0.0762708
0.0656925
0.0656925
0.080314
0.080314
0.0950511
0.0950511
0.103036
0.103036
0.0428082
0.0428082
0.101205
0.101205
0.0760585
0.0760585
0.0436066
0.0436066
0.0338931
0.0338931
0.0414287
0.0414287
0.046652
0.046652
0.101924
0.101924
0.10517
0.10517
0.0846763
0.0846763
0.0801703
0.0801703
0.0755012
0.0755012
0.0537121
0.0537121
0.0422765
0.0422765
0.0764378
0.0764378
0.0921825
0.0921825
0.0462804
0.0462804
0.075928
0.075928
0.0751731
0.0751731
0.0911611
0.0911611
0.103489
0.103489
0.0983572
0.0983572
0.0885121
0.0885121
0.0833065
0.0833065
0.0926327
0.0926327
0.105653
0.105653
0.0430005
0.0430005
0.0496203
0.0496203
0.07161
0.07161
0.10053
0.10053
0.0831577
0.0831577
0.0717341
0.0717341
0.0265421
0.0265421
0.0804354
0.0804354
0.0424533
0.0424533
0.0765369
0.0765369
0.105939
0.105939
0.0853202
0.0853202
0.101201
0.101201
0.0958974
0.0958974
0.0674981
0.0674981
0.0702361
0.0702361
0.105802
0.105802
0.10173
0.10173
0.0532685
0.0532685
0.0446367
0.0446367
0.043614
0.043614
0.0710789
0.0710789
0.10477
0.10477
0.0600147
0.0600147
0.042192
0.042192
0.102769
0.102769
0.0769112
0.0769112
0.082704
0.082704
0.0982485
0.0982485
0.080129
0.080129
0.102945
0.102945
0.104409
0.104409
0.0436391
0.0436391
0.0805696
0.0805696
0.0831742
0.0831742
0.0977797
0.0977797
0.0429421
0.0429421
0.103332
0.103332
0.0805138
0.0805138
0.100097
0.100097
0.0813674
0.0813674
0.0818386
0.0818386
0.0775401
0.0775401
0.0299476
0.0299476
0.0541652
0.0541652
0.0889275
0.0889275
0.0408805
0.0408805
0.0954973
0.0954973
0.0417523
0.0417523
0.0388927