/*--------------------------------*- C++ -*----------------------------------*\
  =========                 |
  \\      /  F ield         | OpenFOAM: The Open Source CFD Toolbox
   \\    /   O peration     | Website:  https://openfoam.org
    \\  /    A nd           | Version:  8
     \\/     M anipulation  |
\*---------------------------------------------------------------------------*/
FoamFile
{
    version     2.0;
    format      ascii;
    class       volScalarField;
    location    "0.9";
    object      k;
}
// * * * * * * * * * * * * * * * * * * * * * * * * * * * * * * * * * * * * * //

dimensions      [0 2 -2 0 0 0 0];

internalField   nonuniform List<scalar> 
1924
(
0.0227906
0.02763
0.0411415
0.0439208
0.0276646
0.0443828
0.0452651
0.0455483
0.045612
0.0402166
0.0455758
0.0446894
0.0277798
0.0447878
0.0554916
0.0556051
0.0288467
0.0445749
0.0212252
0.0452235
0.0215909
0.0335104
0.0275051
0.0458162
0.0331275
0.0440045
0.0460659
0.0349196
0.0317519
0.0444382
0.0292444
0.0350945
0.0209796
0.0290661
0.0357893
0.0272108
0.0410319
0.0325493
0.0443185
0.0297959
0.0434268
0.0243321
0.0426335
0.0268118
0.0403602
0.0305728
0.0214114
0.0431791
0.0089538
0.0137426
0.0195744
0.0269759
0.0328791
0.0159732
0.0286393
0.0410871
0.0206702
0.0403202
0.034722
0.0496324
0.024682
0.0553105
0.0242924
0.0445232
0.0149559
0.0433047
0.0537526
0.0296174
0.0325459
0.0210051
0.0238737
0.0555381
0.0445226
0.0444032
0.0434226
0.0274693
0.0446375
0.0432062
0.0448112
0.0226119
0.0445446
0.0467135
0.0435634
0.0216916
0.0201868
0.0298769
0.0356882
0.0547251
0.00990139
0.0240498
0.0524465
0.0468723
0.0304306
0.0348186
0.0260229
0.0108598
0.0447738
0.0444451
0.0491925
0.0261906
0.0382899
0.0262312
0.0490008
0.047591
0.0373704
0.042631
0.0394038
0.0349629
0.0495016
0.035422
0.0450088
0.0362761
0.0301793
0.0443395
0.0455436
0.0199761
0.0415944
0.0546455
0.0306752
0.0456153
0.0143389
0.00618505
0.0150722
0.0197078
0.0550293
0.041167
0.0291681
0.0428689
0.0377808
0.0103736
0.0450304
0.0401012
0.0231235
0.0445623
0.0274305
0.0402013
0.0343456
0.0371173
0.0471505
0.0328812
0.0416311
0.054775
0.0117172
0.0176001
0.043418
0.0131976
0.0375077
0.0264126
0.0499766
0.0289753
0.0433186
0.0060427
0.0293635
0.0428684
0.0446111
0.0421637
0.00633105
0.0356667
0.0451702
0.0381722
0.0449768
0.0274484
0.0438996
0.00627877
0.0417472
0.0415119
0.0439171
0.00619723
0.0448589
0.0403038
0.0244565
0.0453615
0.0427651
0.047883
0.0418377
0.035993
0.0447267
0.0220836
0.0262125
0.0451287
0.044134
0.0541848
0.0444446
0.0443554
0.00675223
0.0256061
0.0307737
0.0454593
0.0447425
0.0451519
0.0350328
0.0456987
0.0439798
0.0455214
0.0452697
0.00622725
0.0460416
0.036741
0.0410658
0.0350065
0.0155295
0.0301422
0.04297
0.0456996
0.0262211
0.0443236
0.0456975
0.0311286
0.028194
0.0227927
0.00652611
0.0408784
0.0511346
0.0454845
0.045587
0.042752
0.0490415
0.0370862
0.0457184
0.043107
0.0410908
0.0424319
0.0438176
0.0515636
0.0455468
0.0461522
0.0440729
0.0430604
0.0458269
0.0354585
0.0228162
0.0507111
0.0416122
0.0237249
0.0464178
0.038471
0.0515922
0.0456849
0.0448282
0.00645293
0.0531079
0.0436822
0.051214
0.0318932
0.0365611
0.0285281
0.0454144
0.0438773
0.0433308
0.0432202
0.025319
0.00687999
0.0459334
0.0426507
0.0436938
0.0544721
0.043694
0.0426917
0.0419353
0.0455167
0.0442315
0.0452149
0.0480345
0.0431578
0.0328738
0.0434976
0.0231075
0.0431199
0.0292235
0.0135162
0.0344251
0.043275
0.0238431
0.0445101
0.0509599
0.0455265
0.0450029
0.0465587
0.043491
0.0405351
0.00867492
0.00654849
0.0510483
0.0460537
0.0137418
0.0445498
0.0432854
0.00798258
0.0460319
0.0437494
0.0456835
0.0441737
0.0469979
0.0547058
0.0152458
0.0417739
0.0547642
0.0321424
0.0434717
0.0549199
0.00830212
0.0445288
0.0518218
0.0492148
0.0456412
0.0454875
0.024427
0.0514593
0.042302
0.0425541
0.0298156
0.026389
0.0461722
0.0312568
0.0436039
0.0256945
0.0445523
0.0460457
0.045803
0.04548
0.0440248
0.0350089
0.0453208
0.0426607
0.0460855
0.0440663
0.0452014
0.04438
0.0439998
0.0436808
0.0407249
0.0540307
0.0310909
0.0457316
0.043777
0.0471794
0.0507985
0.0458657
0.0466331
0.0455792
0.0440831
0.0439239
0.0314412
0.0325021
0.0556186
0.0550321
0.0223478
0.0553508
0.0244934
0.0453754
0.0394558
0.0183655
0.0381858
0.0550461
0.030169
0.0438562
0.00611108
0.0476053
0.0399438
0.0101212
0.0479019
0.0557791
0.0548297
0.0515481
0.034297
0.0457409
0.0311446
0.0333023
0.0468454
0.0459824
0.0520459
0.0456539
0.0428775
0.053489
0.0457443
0.0166065
0.0557491
0.0556507
0.0318771
0.0553078
0.0550566
0.044014
0.0452615
0.0459718
0.0385159
0.0514841
0.0441195
0.0534031
0.0436536
0.0458007
0.0396014
0.0307043
0.0459654
0.0544687
0.0463784
0.0229905
0.0412315
0.0313379
0.044059
0.0544944
0.0148291
0.0444526
0.0322444
0.0313195
0.00475976
0.0512476
0.0482667
0.0552792
0.0378875
0.0382505
0.0481365
0.0306032
0.0481354
0.0457734
0.0477688
0.0441268
0.0457709
0.0558006
0.0306181
0.0448472
0.0559087
0.0336067
0.0476154
0.0308873
0.0331733
0.0550077
0.0428988
0.0446768
0.0307361
0.0464055
0.0517698
0.0455082
0.0483797
0.0307207
0.0466158
0.045757
0.0545319
0.0199669
0.0461723
0.0320302
0.037998
0.0421537
0.0460855
0.0375124
0.0554461
0.0376903
0.0491779
0.0444368
0.046035
0.0537829
0.0545588
0.0305155
0.0462503
0.0449047
0.0406797
0.0464598
0.0522011
0.0549273
0.0305125
0.0543065
0.0449599
0.0309204
0.0261521
0.0298281
0.0323464
0.0544061
0.0555886
0.0480648
0.046366
0.0446001
0.0356014
0.0302746
0.0450523
0.0511801
0.0321936
0.0448904
0.0445023
0.0503826
0.0550804
0.0533199
0.0495152
0.047524
0.0510161
0.0557831
0.0306272
0.0337442
0.0430789
0.0540326
0.0475101
0.0431054
0.0222402
0.0464838
0.0303565
0.0450062
0.0559496
0.048658
0.0543001
0.0522151
0.0414381
0.0424389
0.0559204
0.0544873
0.0354263
0.0314153
0.0309627
0.0428949
0.055527
0.0383196
0.0302364
0.054896
0.0452959
0.0476232
0.0530665
0.0463857
0.0547722
0.0553017
0.0309388
0.0465569
0.0474607
0.0531055
0.0305858
0.0550378
0.0467849
0.0539967
0.0468446
0.0470326
0.0455157
0.0240581
0.0357912
0.0496278
0.0295533
0.0520092
0.0300253
0.028649
0.0320236
0.0560575
0.0478951
0.0322295
0.0269547
0.0321186
0.0303946
0.0429466
0.0214186
0.0451484
0.0523226
0.0434311
0.0448939
0.044241
0.0553067
0.0454675
0.0422416
0.0513981
0.052596
0.0300556
0.0374136
0.0291397
0.0247959
0.0188818
0.0399035
0.0446306
0.0315535
0.0302896
0.0304997
0.0519956
0.0362733
0.0309546
0.0461743
0.0452769
0.0449935
0.0301675
0.0505732
0.0476551
0.0354524
0.0534638
0.0462001
0.0556157
0.0264151
0.0314586
0.0560589
0.0303732
0.0306827
0.0539987
0.0481042
0.0540789
0.0148843
0.0225355
0.0560167
0.0231962
0.0494125
0.0436905
0.033096
0.0302361
0.011963
0.0168411
0.0195533
0.0555492
0.0559588
0.0427524
0.056211
0.0275772
0.0103025
0.0556643
0.0499613
0.0440619
0.0298151
0.0539875
0.0471918
0.0464694
0.0315907
0.0224487
0.0323084
0.0541211
0.0266942
0.0431911
0.0304047
0.0553368
0.047049
0.0320706
0.0134349
0.042917
0.0546216
0.0481982
0.0453989
0.0310998
0.0497126
0.0454342
0.0245898
0.0541712
0.0478596
0.028148
0.0525643
0.0358152
0.0429289
0.0258479
0.0296965
0.0111479
0.0348374
0.0374318
0.0425862
0.0534238
0.0499042
0.0523074
0.0300139
0.0327404
0.0354285
0.0550442
0.0308195
0.0554074
0.0436459
0.0328709
0.0303174
0.0528235
0.0346479
0.0479012
0.0249302
0.0544046
0.0286123
0.0461124
0.0320574
0.0282246
0.0309832
0.0224537
0.045921
0.0520542
0.0548005
0.0442601
0.0314699
0.0526158
0.0299152
0.0298149
0.0303461
0.0480374
0.0231449
0.043944
0.0548787
0.0508086
0.049789
0.0523808
0.0195905
0.0258204
0.056188
0.0562666
0.0558462
0.0564843
0.0312414
0.0501222
0.0560894
0.0253714
0.0557814
0.0230914
0.0443893
0.0519687
0.0445185
0.0325199
0.02978
0.0558397
0.0257833
0.0470228
0.0300946
0.0308283
0.0498731
0.0250758
0.0344186
0.0311099
0.0166679
0.0350012
0.0495658
0.0321726
0.055056
0.0295078
0.0299784
0.0208163
0.0499702
0.0215931
0.0317404
0.0480522
0.0528163
0.0277637
0.055959
0.010705
0.0467009
0.0544294
0.0473815
0.024168
0.0521561
0.012666
0.0162046
0.0132721
0.0317932
0.0537916
0.0530688
0.0264923
0.0411161
0.0305526
0.056711
0.0315432
0.0563135
0.042434
0.0561184
0.0261787
0.0178734
0.0547083
0.049037
0.00711152
0.0445663
0.0327631
0.0297106
0.0242954
0.0294992
0.0529046
0.0313026
0.0356677
0.0509505
0.0416616
0.0420493
0.0481645
0.0453525
0.0145015
0.015134
0.0554783
0.0460125
0.0549031
0.0557433
0.051453
0.0310946
0.0245262
0.0322914
0.0300551
0.0220748
0.0330019
0.0529966
0.0327933
0.0395726
0.0489217
0.0312955
0.0563454
0.0295433
0.0320323
0.0217737
0.0430651
0.0239164
0.0479654
0.0524609
0.0319272
0.0476086
0.0464614
0.0537877
0.0344158
0.0565658
0.0426525
0.0241304
0.0282078
0.0564114
0.0490498
0.0305873
0.0507443
0.055984
0.0119399
0.0349738
0.0296306
0.0244335
0.0318261
0.031752
0.044869
0.0489493
0.0554109
0.0430145
0.0544078
0.0523336
0.0298586
0.0470378
0.0548625
0.0408486
0.00960603
0.0295339
0.0222675
0.0565206
0.0198379
0.0315399
0.0309959
0.0256468
0.049445
0.0563335
0.0200556
0.0559891
0.0541429
0.0302933
0.0567307
0.0524288
0.022977
0.0532208
0.0498169
0.0291937
0.0330881
0.0312166
0.0328449
0.0475607
0.057056
0.052515
0.00484013
0.0439257
0.00931124
0.0336609
0.0323248
0.00631623
0.0275582
0.0338204
0.0309771
0.056029
0.0291115
0.0529899
0.0541569
0.0187094
0.0485163
0.0535432
0.041543
0.026233
0.0295142
0.0175939
0.0474589
0.0568974
0.0564787
0.0417311
0.0457119
0.0233865
0.0476186
0.0183475
0.0320414
0.0196187
0.0229508
0.0519683
0.0293081
0.0215023
0.0529282
0.0299415
0.0454272
0.0494469
0.0216276
0.00616546
0.034919
0.0442445
0.0291839
0.0568909
0.0461451
0.0361359
0.031712
0.0476825
0.044223
0.0542423
0.0561099
0.0304299
0.0504373
0.00587605
0.0567392
0.0566373
0.0564856
0.055583
0.0555816
0.0240293
0.0544696
0.0205184
0.0465686
0.029339
0.0142814
0.0331243
0.0314926
0.0568036
0.0173317
0.0341716
0.0569501
0.0339211
0.0449213
0.0550686
0.00662433
0.0152751
0.0510619
0.0167296
0.0326517
0.0297848
0.0479512
0.0472515
0.054373
0.0310263
0.0171768
0.0532119
0.0216027
0.0501645
0.049731
0.0544202
0.0348355
0.030212
0.056453
0.0322038
0.0274185
0.0407061
0.0308016
0.0573532
0.0287011
0.034928
0.0511028
0.0484341
0.00787834
0.0527353
0.0150891
0.00959059
0.0360438
0.0308265
0.0408773
0.0175197
0.0555697
0.0250906
0.0319497
0.028822
0.028978
0.0563747
0.00551478
0.0219208
0.013773
0.018522
0.0574342
0.0296701
0.0508134
0.029221
0.0511291
0.0174111
0.0461776
0.0567056
0.0315015
0.0342094
0.0168419
0.0487354
0.029712
0.0475826
0.0334534
0.0557384
0.0443809
0.037095
0.0353062
0.0551638
0.0315394
0.0559588
0.0355738
0.0229685
0.0300144
0.0327627
0.0528976
0.0312979
0.0392653
0.0428953
0.0281081
0.0317676
0.0462299
0.0506032
0.0303434
0.0286676
0.0481202
0.0266519
0.0564917
0.0568184
0.0206689
0.0324113
0.0159419
0.0251991
0.0576454
0.029071
0.0309728
0.0560452
0.0450694
0.0559667
0.0374572
0.0307641
0.0166609
0.0573999
0.0363786
0.0557505
0.0538523
0.0367275
0.0360908
0.0295974
0.0318954
0.0568716
0.0570951
0.0567704
0.00551876
0.048541
0.0487774
0.0402205
0.0298913
0.0494744
0.0448223
0.0441271
0.0261025
0.0227504
0.0533449
0.0552253
0.014766
0.0149694
0.0301908
0.0454835
0.0404921
0.0316877
0.0211215
0.0560603
0.0543358
0.0529413
0.0576829
0.0335063
0.0509894
0.0356402
0.0345644
0.0404151
0.0305911
0.0570987
0.0186034
0.0311082
0.0437442
0.0471793
0.0329371
0.0571391
0.0495224
0.0280276
0.0367884
0.0207366
0.0286988
0.0430365
0.0196183
0.0487037
0.0566293
0.0322103
0.050857
0.0156461
0.0574882
0.0154799
0.0308976
0.0292317
0.0370769
0.0449184
0.0100563
0.0576277
0.0295919
0.0320196
0.0416326
0.0371776
0.0296923
0.0102752
0.0203025
0.0268297
0.0485456
0.0372661
0.0576182
0.0387837
0.0300522
0.0568403
0.0418298
0.0414526
0.0314081
0.0376348
0.0566611
0.0431125
0.0449994
0.016385
0.0285321
0.0303716
0.0238948
0.0420673
0.0345646
0.00792427
0.0214601
0.0360594
0.0553454
0.033684
0.0177391
0.0537669
0.00622334
0.00724527
0.0476363
0.0207135
0.0311644
0.0561846
0.0290964
0.0325255
0.0372712
0.0197507
0.0579017
0.0560616
0.0543584
0.0329394
0.0402211
0.0294462
0.0421862
0.0485798
0.0571234
0.0513356
0.0576743
0.0293685
0.0277652
0.0322649
0.0540277
0.0512734
0.0139018
0.0296531
0.0577878
0.00825427
0.0138392
0.0191842
0.0305477
0.0418145
0.0316699
0.030121
0.0413424
0.00580237
0.0404735
0.0509722
0.0576817
0.0558516
0.0571251
0.0569294
0.0201229
0.0480277
0.0327578
0.0383546
0.0381424
0.00861145
0.0421913
0.0314656
0.00937097
0.014819
0.0391717
0.0482042
0.0302241
0.056957
0.0263803
0.0216736
0.0158445
0.0515594
0.0554885
0.038397
0.038856
0.0453098
0.0538495
0.0513981
0.0187897
0.0580721
0.0242301
0.0398345
0.0281646
0.00992743
0.0307371
0.0359563
0.0330036
0.0427032
0.028599
0.0347952
0.040437
0.0413368
0.0567159
0.0139544
0.0325621
0.0287939
0.0185209
0.0481132
0.0577704
0.0393818
0.0275764
0.0440976
0.028763
0.0318129
0.0158429
0.0482741
0.0557893
0.0285025
0.057256
0.0185156
0.0580113
0.0329648
0.0247108
0.0571737
0.0303343
0.0547295
0.00652045
0.00914515
0.0378245
0.0316526
0.0293813
0.0279012
0.0578097
0.0194485
0.0175897
0.00840173
0.0429758
0.0544851
0.030974
0.0387943
0.0561466
0.0560083
0.0547985
0.0568076
0.0263959
0.044248
0.0269402
0.0572375
0.0541753
0.0406459
0.013617
0.0131752
0.0581783
0.0295514
0.0407803
0.0277135
0.0164997
0.0401407
0.0281186
0.0544012
0.0283491
0.0500143
0.0411559
0.0516646
0.0253067
0.0103599
0.040744
0.0523511
0.0278262
0.0090676
0.0222471
0.0305359
0.0192612
0.0197734
0.0285597
0.025945
0.0561904
0.0337455
0.0513479
0.0167335
0.016606
0.0478982
0.0318927
0.0581214
0.033076
0.0232372
0.018311
0.00962845
0.0471495
0.0545871
0.00973878
0.0525446
0.0427171
0.0362888
0.0573759
0.0411201
0.0317272
0.0533593
0.0290387
0.0501757
0.0144441
0.0410813
0.0187166
0.0553433
0.0572253
0.0400603
0.0295945
0.0415376
0.037423
0.0309663
0.0136502
0.0576987
0.0515978
0.047905
0.0473358
0.041743
0.0255896
0.0557955
0.0426688
0.0419341
0.0120107
0.0307108
0.054594
0.0454325
0.0156337
0.0535446
0.0421503
0.00603576
0.0547314
0.0494815
0.0518505
0.0291325
0.0413745
0.0413967
0.0538152
0.0547296
0.01649
0.0442031
0.0577538
0.0201585
0.041504
0.0394839
0.0199511
0.0520886
0.0196928
0.0580948
0.0417638
0.041791
0.0164706
0.0235408
0.0523357
0.00948552
0.0421352
0.0497703
0.0174079
0.0444739
0.0297435
0.0554127
0.056933
0.00646856
0.0419841
0.051087
0.0560443
0.0425305
0.00395907
0.00495438
0.0153132
0.0156574
0.0509829
0.0141126
0.0320391
0.0574899
0.0338815
0.0472386
0.057383
0.0419174
0.007929
0.0407666
0.0414271
0.0414105
0.0580874
0.0558524
0.0137472
0.0424026
0.0347055
0.0144672
0.0317815
0.0191917
0.0173544
0.0197278
0.0418305
0.0104651
0.016964
0.0210704
0.0199027
0.0573949
0.00965175
0.047556
0.0310999
0.0395861
0.0192813
0.0495791
0.0191894
0.0517793
0.00515821
0.0195058
0.0292892
0.0122341
0.0494754
0.0522525
0.00791806
0.0427086
0.0237491
0.0385943
0.0182697
0.0435401
0.0378853
0.0528724
0.0308098
0.0536607
0.0421966
0.0315297
0.042084
0.0193633
0.0533357
0.0260941
0.0446508
0.0522246
0.0411791
0.0187744
0.0335824
0.00928438
0.0131118
0.021201
0.0569464
0.0560546
0.0420751
0.0298782
0.0453412
0.0158119
0.0474643
0.0416474
0.0426235
0.0519513
0.0562012
0.0168307
0.0437054
0.0478433
0.0463807
0.0538918
0.0560832
0.0418628
0.0181313
0.0396904
0.0323169
0.0157586
0.0434404
0.0574288
0.0421204
0.0521923
0.0544057
0.0573379
0.0200178
0.0532893
0.0357023
0.0319765
0.0126238
0.0412917
0.0294821
0.0527973
0.0415118
0.0403413
0.0390183
0.0476947
0.034949
0.0577258
0.0415366
0.0536457
0.0145222
0.0573828
0.0119885
0.0577467
0.0165421
0.0431638
0.00650052
0.045508
0.0438779
0.0424638
0.0311374
0.00963924
0.0395185
0.0451667
0.0117025
0.012055
0.00942778
0.0140482
0.0415241
0.0544891
0.0560832
0.015839
0.0518072
0.0520243
0.0110137
0.0403212
0.0159119
0.0408324
0.0368163
0.0460076
0.040071
0.0307621
0.0167565
0.0479689
0.0213685
0.0413208
0.0360489
0.0480568
0.0327198
0.0121457
0.0179446
0.0539754
0.0251565
0.0181783
0.0392361
0.0181656
0.0409523
0.055956
0.0174455
0.0399003
0.0389276
0.0169877
0.039056
0.0479421
0.0119017
0.0163404
0.0199363
0.0323168
0.031227
0.0396236
0.0559594
0.0300023
0.0372841
0.0538692
0.0319068
0.00440783
0.00412236
0.0170432
0.0313036
0.04071
0.038894
0.0453198
0.03649
0.00809585
0.0448697
0.0333483
0.0387252
0.0448941
0.0123975
0.0176148
0.0129483
0.0158474
0.0460381
0.0388416
0.0101963
0.0476653
0.0358796
0.0372375
0.0513768
0.0328179
0.0182578
0.016483
0.04065
0.0384602
0.0133816
0.0568499
0.0220788
0.0367706
0.0296232
0.00618335
0.0370108
0.0393431
0.0367871
0.0182285
0.0477909
0.0568334
0.0378455
0.0385827
0.0568434
0.0473006
0.0314207
0.0570847
0.0337457
0.0100839
0.0562854
0.0475848
0.030776
0.0123799
0.0540529
0.0160825
0.0570734
0.0206482
0.0315695
0.00786313
0.0515747
0.0330736
0.0339773
0.0333106
0.0329992
0.03366
0.00579875
0.0122439
0.0403039
0.0352656
0.0558787
0.0550438
0.0315808
0.0541589
0.0333524
0.0466566
0.031164
0.0408777
0.0406263
0.0477524
0.0101961
0.0354394
0.038584
0.0333735
0.0558169
0.0301008
0.0551384
0.0340876
0.0534344
0.00958784
0.0562462
0.0166853
0.0108779
0.0326425
0.0453779
0.0107045
0.0548705
0.0323641
0.0326361
0.0441152
0.0317294
0.031813
0.030483
0.0558553
0.0558752
0.0441586
0.0382235
0.0311866
0.0446526
0.0568175
0.0321389
0.00988642
0.0316295
0.0536595
0.0320137
0.0390741
0.0300295
0.0552649
0.0102059
0.00945546
0.0547509
0.00935498
0.03514
0.053889
0.0506821
0.0534564
0.0314375
0.0328736
0.0461483
0.0509213
0.0537178
0.0313042
0.053604
0.0315438
0.046673
0.00678215
0.00506932
0.0311635
0.0552331
0.0469751
0.0151451
0.0334067
0.0272673
0.0308695
0.0524814
0.0518678
0.0266233
0.0538018
0.0221743
0.0175312
0.0308962
0.0313072
0.0311634
0.0301617
0.0383955
0.0377643
0.0297598
0.0380693
0.0282414
0.0260522
0.0305273
0.0158146
0.0310753
0.0515347
0.0299549
0.00581396
0.00409028
0.0537553
0.0304523
0.0496244
0.0463068
0.0465194
0.0523592
0.0523171
0.0335737
0.0499223
0.0297525
0.0460621
0.052431
0.0256458
0.0373003
0.030117
0.0397968
0.0296761
0.0260646
0.0457162
0.0269943
0.0280665
0.0271412
0.0503344
0.0391046
0.051331
0.0378723
0.0303984
0.0522038
0.0253161
0.0253502
0.0303826
0.0208532
0.0220578
0.0181196
0.0501308
0.010071
0.0488131
0.0247339
0.0289612
0.0503226
0.0443553
0.0368408
0.0450285
0.0455022
0.0443952
0.0280518
0.0373793
0.0278077
0.0241337
0.0447824
0.0479344
0.0480241
0.0295604
0.0360536
0.0229989
0.024562
0.028746
0.0470746
0.0454022
0.0295369
0.0502968
0.0483219
0.0298748
0.0346124
0.0367246
0.030064
0.0398475
0.0392809
0.0373908
0.0366609
0.0422435
0.0455638
0.00319779
0.00346548
0.0249849
0.00210415
0.0310027
0.00432861
0.0182065
0.0205438
0.0275424
0.0202869
0.0188509
0.0190754
0.0218379
0.0189786
0.0184052
0.0224692
0.041964
0.0411187
0.0459804
0.03963
0.0408225
0.0423317
0.0430874
0.0326482
0.0187569
0.0194731
0.0215776
0.0200635
0.0199963
0.0218314
0.0436798
0.0426741
0.0446564
0.0468716
0.048738
0.0476806
0.010873
0.00869542
0.0203944
0.0159947
0.0177431
0.00733977
0.0144556
0.0311065
0.00948178
0.014941
0.010213
0.00545325
0.044611
0.0173298
0.0104286
0.00689361
0.00745382
0.030779
0.00612234
0.0229856
0.0317595
0.00773975
0.0179232
0.0336269
0.0195697
0.00535833
0.00511326
0.00518494
0.00363007
0.00743651
0.0035812
0.00413003
0.00385278
0.0365184
0.0105603
0.0150064
0.0037821
0.00217035
0.00248789
0.00983084
0.0330444
0.030843
0.00439961
0.0055522
0.00525131
0.01552
0.0170888
0.00937259
0.0164433
0.0433611
0.0111066
0.00583602
0.00511249
0.00374905
0.00702354
0.00428121
0.007451
0.00469372
0.00472235
0.00443938
0.00239197
0.00267743
0.0362105
0.0331109
0.00849069
0.0433669
0.00477928
0.00509906
0.00756038
0.00755214
0.0155344
0.00580603
0.0325477
0.00807715
0.0201477
0.0174486
0.00295688
0.0140371
0.0092142
0.0104942
0.00480532
0.0477496
0.0137559
0.0326333
0.00598575
0.00806271
0.0474847
0.00762118
0.00606631
0.00322844
0.0212969
0.0320324
0.0479187
0.0059595
0.009519
0.00300938
0.0320056
0.0454049
0.0100626
0.0480847
0.0316572
0.00505148
0.0315611
0.047199
0.0145514
0.0311666
0.0149251
0.0121438
0.0106556
0.00282656
0.031254
0.00444148
0.00377819
0.0475484
)
;

boundaryField
{
    patch0
    {
        type            kqRWallFunction;
        value           nonuniform List<scalar> 
4010
(
0.0227906
0.0227906
0.02763
0.02763
0.0411415
0.0411415
0.0439208
0.0439208
0.0276646
0.0276646
0.0443828
0.0443828
0.0452651
0.0452651
0.0455483
0.0455483
0.045612
0.045612
0.0402166
0.0402166
0.0455758
0.0455758
0.0446894
0.0446894
0.0277798
0.0277798
0.0447878
0.0447878
0.0554916
0.0554916
0.0556051
0.0556051
0.0288467
0.0288467
0.0445749
0.0445749
0.0212252
0.0212252
0.0452235
0.0452235
0.0215909
0.0215909
0.0335104
0.0335104
0.0275051
0.0275051
0.0458162
0.0458162
0.0331275
0.0331275
0.0440045
0.0440045
0.0460659
0.0460659
0.0349196
0.0349196
0.0317519
0.0317519
0.0444382
0.0444382
0.0292444
0.0292444
0.0350945
0.0350945
0.0209796
0.0209796
0.0290661
0.0290661
0.0357893
0.0357893
0.0272108
0.0272108
0.0410319
0.0410319
0.0325493
0.0325493
0.0443185
0.0443185
0.0297959
0.0297959
0.0434268
0.0434268
0.0243321
0.0243321
0.0426335
0.0426335
0.0268118
0.0268118
0.0403602
0.0403602
0.0305728
0.0305728
0.0214114
0.0214114
0.0431791
0.0431791
0.0089538
0.0089538
0.0137426
0.0137426
0.0195744
0.0195744
0.0269759
0.0269759
0.0328791
0.0328791
0.0159732
0.0159732
0.0286393
0.0286393
0.0410871
0.0410871
0.0206702
0.0206702
0.0403202
0.0403202
0.034722
0.034722
0.0496324
0.0496324
0.024682
0.024682
0.0553105
0.0553105
0.0242924
0.0242924
0.0445232
0.0445232
0.0149559
0.0149559
0.0433047
0.0433047
0.0537526
0.0537526
0.0296174
0.0296174
0.0325459
0.0325459
0.0210051
0.0210051
0.0238737
0.0238737
0.0555381
0.0555381
0.0445226
0.0445226
0.0444032
0.0444032
0.0434226
0.0434226
0.0274693
0.0274693
0.0446375
0.0446375
0.0432062
0.0432062
0.0448112
0.0448112
0.0226119
0.0226119
0.0445446
0.0445446
0.0467135
0.0467135
0.0435634
0.0435634
0.0216916
0.0216916
0.0201868
0.0201868
0.0298769
0.0298769
0.0356882
0.0356882
0.0547251
0.0547251
0.00990139
0.00990139
0.0240498
0.0240498
0.0524465
0.0524465
0.0468723
0.0468723
0.0304306
0.0304306
0.0348186
0.0348186
0.0260229
0.0260229
0.0108598
0.0108598
0.0447738
0.0447738
0.0444451
0.0444451
0.0491925
0.0491925
0.0261906
0.0261906
0.0382899
0.0382899
0.0262312
0.0262312
0.0490008
0.0490008
0.047591
0.047591
0.0373704
0.0373704
0.042631
0.042631
0.0394038
0.0394038
0.0349629
0.0349629
0.0495016
0.0495016
0.035422
0.035422
0.0450088
0.0450088
0.0362761
0.0362761
0.0301793
0.0301793
0.0443395
0.0443395
0.0455436
0.0455436
0.0199761
0.0199761
0.0415944
0.0415944
0.0546455
0.0546455
0.0306752
0.0306752
0.0456153
0.0456153
0.0143389
0.0143389
0.00618505
0.00618505
0.0150722
0.0150722
0.0197078
0.0197078
0.0550293
0.0550293
0.041167
0.041167
0.0291681
0.0291681
0.0428689
0.0428689
0.0377808
0.0377808
0.0103736
0.0103736
0.0450304
0.0450304
0.0401012
0.0401012
0.0231235
0.0231235
0.0445623
0.0445623
0.0274305
0.0274305
0.0402013
0.0402013
0.0343456
0.0343456
0.0371173
0.0371173
0.0471505
0.0471505
0.0328812
0.0328812
0.0416311
0.0416311
0.054775
0.054775
0.0117172
0.0117172
0.0117172
0.0176001
0.0176001
0.0176001
0.043418
0.043418
0.0131976
0.0131976
0.0375077
0.0375077
0.0264126
0.0264126
0.0499766
0.0499766
0.0289753
0.0289753
0.0433186
0.0433186
0.0060427
0.0060427
0.0060427
0.0293635
0.0293635
0.0428684
0.0428684
0.0446111
0.0446111
0.0421637
0.0421637
0.00633105
0.00633105
0.0356667
0.0356667
0.0451702
0.0451702
0.0381722
0.0381722
0.0449768
0.0449768
0.0274484
0.0274484
0.0438996
0.0438996
0.00627877
0.00627877
0.0417472
0.0417472
0.0415119
0.0415119
0.0439171
0.0439171
0.00619723
0.00619723
0.0448589
0.0448589
0.0403038
0.0403038
0.0244565
0.0244565
0.0453615
0.0453615
0.0427651
0.0427651
0.047883
0.047883
0.0418377
0.0418377
0.035993
0.035993
0.0447267
0.0447267
0.0220836
0.0220836
0.0262125
0.0262125
0.0451287
0.0451287
0.044134
0.044134
0.0541848
0.0541848
0.0444446
0.0444446
0.0443554
0.0443554
0.00675223
0.00675223
0.0256061
0.0256061
0.0307737
0.0307737
0.0454593
0.0454593
0.0447425
0.0447425
0.0451519
0.0451519
0.0350328
0.0350328
0.0456987
0.0456987
0.0439798
0.0439798
0.0455214
0.0455214
0.0452697
0.0452697
0.00622725
0.00622725
0.00622725
0.0460416
0.0460416
0.036741
0.036741
0.0410658
0.0410658
0.0350065
0.0350065
0.0155295
0.0155295
0.0301422
0.0301422
0.04297
0.04297
0.0456996
0.0456996
0.0262211
0.0262211
0.0443236
0.0443236
0.0456975
0.0456975
0.0311286
0.0311286
0.028194
0.028194
0.0227927
0.0227927
0.0227927
0.00652611
0.00652611
0.0408784
0.0408784
0.0511346
0.0511346
0.0454845
0.0454845
0.045587
0.045587
0.042752
0.042752
0.0490415
0.0490415
0.0370862
0.0370862
0.0457184
0.0457184
0.043107
0.043107
0.0410908
0.0410908
0.0424319
0.0424319
0.0438176
0.0438176
0.0515636
0.0515636
0.0455468
0.0455468
0.0461522
0.0461522
0.0440729
0.0440729
0.0430604
0.0430604
0.0458269
0.0458269
0.0354585
0.0354585
0.0228162
0.0228162
0.0507111
0.0507111
0.0416122
0.0416122
0.0237249
0.0237249
0.0464178
0.0464178
0.038471
0.038471
0.038471
0.0515922
0.0515922
0.0456849
0.0456849
0.0448282
0.0448282
0.00645293
0.00645293
0.00645293
0.0531079
0.0531079
0.0436822
0.0436822
0.051214
0.051214
0.0318932
0.0318932
0.0365611
0.0365611
0.0285281
0.0285281
0.0454144
0.0454144
0.0438773
0.0438773
0.0433308
0.0433308
0.0432202
0.0432202
0.025319
0.025319
0.00687999
0.00687999
0.0459334
0.0459334
0.0426507
0.0426507
0.0436938
0.0436938
0.0544721
0.0544721
0.043694
0.043694
0.0426917
0.0426917
0.0419353
0.0419353
0.0455167
0.0455167
0.0442315
0.0442315
0.0452149
0.0452149
0.0480345
0.0480345
0.0431578
0.0431578
0.0328738
0.0328738
0.0434976
0.0434976
0.0231075
0.0231075
0.0431199
0.0431199
0.0292235
0.0292235
0.0135162
0.0135162
0.0344251
0.0344251
0.043275
0.043275
0.0238431
0.0238431
0.0445101
0.0445101
0.0509599
0.0509599
0.0455265
0.0455265
0.0450029
0.0450029
0.0465587
0.0465587
0.043491
0.043491
0.0405351
0.0405351
0.00867492
0.00867492
0.00654849
0.00654849
0.00654849
0.0510483
0.0510483
0.0460537
0.0460537
0.0137418
0.0137418
0.0445498
0.0445498
0.0432854
0.0432854
0.00798258
0.00798258
0.0460319
0.0460319
0.0437494
0.0437494
0.0456835
0.0456835
0.0441737
0.0441737
0.0469979
0.0469979
0.0547058
0.0547058
0.0152458
0.0152458
0.0417739
0.0417739
0.0547642
0.0547642
0.0321424
0.0321424
0.0434717
0.0434717
0.0549199
0.0549199
0.00830212
0.00830212
0.00830212
0.0445288
0.0445288
0.0518218
0.0518218
0.0492148
0.0492148
0.0456412
0.0456412
0.0454875
0.0454875
0.024427
0.024427
0.0514593
0.0514593
0.042302
0.042302
0.0425541
0.0425541
0.0298156
0.0298156
0.026389
0.026389
0.0461722
0.0461722
0.0312568
0.0312568
0.0436039
0.0436039
0.0256945
0.0256945
0.0445523
0.0445523
0.0460457
0.0460457
0.045803
0.045803
0.04548
0.04548
0.0440248
0.0440248
0.0350089
0.0350089
0.0453208
0.0453208
0.0426607
0.0426607
0.0460855
0.0460855
0.0440663
0.0440663
0.0452014
0.0452014
0.04438
0.04438
0.0439998
0.0439998
0.0436808
0.0436808
0.0407249
0.0407249
0.0540307
0.0540307
0.0310909
0.0310909
0.0457316
0.0457316
0.043777
0.043777
0.0471794
0.0471794
0.0507985
0.0507985
0.0458657
0.0458657
0.0466331
0.0466331
0.0455792
0.0455792
0.0440831
0.0440831
0.0439239
0.0439239
0.0314412
0.0314412
0.0325021
0.0325021
0.0556186
0.0556186
0.0550321
0.0550321
0.0223478
0.0223478
0.0553508
0.0553508
0.0244934
0.0244934
0.0453754
0.0453754
0.0394558
0.0394558
0.0183655
0.0183655
0.0381858
0.0381858
0.0550461
0.0550461
0.030169
0.030169
0.0438562
0.0438562
0.00611108
0.00611108
0.0476053
0.0476053
0.0399438
0.0399438
0.0101212
0.0101212
0.0479019
0.0479019
0.0557791
0.0557791
0.0548297
0.0548297
0.0515481
0.0515481
0.034297
0.034297
0.0457409
0.0457409
0.0311446
0.0311446
0.0333023
0.0333023
0.0468454
0.0468454
0.0459824
0.0459824
0.0520459
0.0520459
0.0456539
0.0456539
0.0428775
0.0428775
0.053489
0.053489
0.0457443
0.0457443
0.0166065
0.0166065
0.0557491
0.0557491
0.0556507
0.0556507
0.0318771
0.0318771
0.0553078
0.0553078
0.0550566
0.0550566
0.044014
0.044014
0.0452615
0.0452615
0.0459718
0.0459718
0.0385159
0.0385159
0.0514841
0.0514841
0.0441195
0.0441195
0.0534031
0.0534031
0.0436536
0.0436536
0.0458007
0.0458007
0.0396014
0.0396014
0.0307043
0.0307043
0.0459654
0.0459654
0.0544687
0.0544687
0.0463784
0.0463784
0.0229905
0.0229905
0.0229905
0.0412315
0.0412315
0.0313379
0.0313379
0.044059
0.044059
0.0544944
0.0544944
0.0148291
0.0148291
0.0444526
0.0444526
0.0322444
0.0322444
0.0313195
0.0313195
0.00475976
0.00475976
0.00475976
0.0512476
0.0512476
0.0482667
0.0482667
0.0552792
0.0552792
0.0378875
0.0378875
0.0382505
0.0382505
0.0481365
0.0481365
0.0306032
0.0306032
0.0481354
0.0481354
0.0457734
0.0457734
0.0477688
0.0477688
0.0441268
0.0441268
0.0457709
0.0457709
0.0558006
0.0558006
0.0306181
0.0306181
0.0448472
0.0448472
0.0559087
0.0559087
0.0336067
0.0336067
0.0476154
0.0476154
0.0308873
0.0308873
0.0331733
0.0331733
0.0550077
0.0550077
0.0428988
0.0428988
0.0446768
0.0446768
0.0307361
0.0307361
0.0464055
0.0464055
0.0517698
0.0517698
0.0455082
0.0455082
0.0483797
0.0483797
0.0307207
0.0307207
0.0466158
0.0466158
0.045757
0.045757
0.0545319
0.0545319
0.0199669
0.0199669
0.0461723
0.0461723
0.0320302
0.0320302
0.037998
0.037998
0.0421537
0.0421537
0.0460855
0.0460855
0.0375124
0.0375124
0.0554461
0.0554461
0.0376903
0.0376903
0.0376903
0.0491779
0.0491779
0.0444368
0.0444368
0.046035
0.046035
0.0537829
0.0537829
0.0545588
0.0545588
0.0305155
0.0305155
0.0462503
0.0462503
0.0449047
0.0449047
0.0406797
0.0406797
0.0464598
0.0464598
0.0522011
0.0522011
0.0549273
0.0549273
0.0305125
0.0305125
0.0543065
0.0543065
0.0449599
0.0449599
0.0309204
0.0309204
0.0261521
0.0261521
0.0298281
0.0298281
0.0323464
0.0323464
0.0544061
0.0544061
0.0555886
0.0555886
0.0480648
0.0480648
0.046366
0.046366
0.0446001
0.0446001
0.0356014
0.0356014
0.0302746
0.0302746
0.0450523
0.0450523
0.0511801
0.0511801
0.0321936
0.0321936
0.0448904
0.0448904
0.0445023
0.0445023
0.0503826
0.0503826
0.0550804
0.0550804
0.0533199
0.0533199
0.0495152
0.0495152
0.047524
0.047524
0.0510161
0.0510161
0.0557831
0.0557831
0.0306272
0.0306272
0.0337442
0.0337442
0.0430789
0.0430789
0.0540326
0.0540326
0.0475101
0.0475101
0.0431054
0.0431054
0.0222402
0.0222402
0.0464838
0.0464838
0.0303565
0.0303565
0.0450062
0.0450062
0.0559496
0.0559496
0.048658
0.048658
0.0543001
0.0543001