/*--------------------------------*- C++ -*----------------------------------*\
  =========                 |
  \\      /  F ield         | OpenFOAM: The Open Source CFD Toolbox
   \\    /   O peration     | Website:  https://openfoam.org
    \\  /    A nd           | Version:  8
     \\/     M anipulation  |
\*---------------------------------------------------------------------------*/
FoamFile
{
    version     2.0;
    format      ascii;
    class       volScalarField;
    location    "0.9";
    object      nut;
}
// * * * * * * * * * * * * * * * * * * * * * * * * * * * * * * * * * * * * * //

dimensions      [0 2 -1 0 0 0 0];

internalField   nonuniform List<scalar> 
1924
(
0.00169174
0.00185987
0.00226997
0.00235041
0.00186006
0.00236239
0.00238895
0.00239722
0.00239962
0.00224708
0.00240147
0.00237609
0.00187648
0.00237772
0.00264486
0.00264869
0.00191075
0.00236829
0.00163147
0.00238285
0.00165642
0.00205981
0.00186009
0.0023983
0.00204759
0.00235969
0.00240994
0.00209221
0.00198454
0.00236743
0.00191689
0.00210934
0.00162402
0.00191542
0.00211847
0.00185104
0.00227829
0.00201301
0.00236411
0.00193655
0.00234595
0.00175639
0.00232396
0.00183503
0.00225708
0.0019346
0.00163967
0.0023336
0.00106356
0.00131903
0.00157259
0.0018495
0.00203941
0.00142163
0.00188616
0.00227376
0.00161024
0.00225502
0.00208743
0.00249613
0.00176124
0.00263839
0.00174847
0.00236697
0.00137455
0.00233664
0.00259749
0.00193082
0.00199821
0.00162929
0.00173797
0.00264489
0.00236908
0.00236704
0.00234335
0.0018606
0.00237202
0.00233679
0.00237668
0.00168682
0.00237548
0.00242595
0.00234139
0.00165698
0.00159396
0.00193978
0.00211617
0.00262042
0.00112029
0.00174421
0.00256382
0.00242951
0.00193517
0.00207471
0.00181556
0.00116994
0.00237554
0.00237099
0.00248559
0.00182056
0.00217077
0.00182312
0.00248088
0.00244689
0.00215043
0.00232036
0.0022087
0.00208305
0.00249221
0.00208299
0.00238171
0.00211812
0.00194488
0.00236042
0.00239596
0.00159069
0.00227902
0.00263202
0.00196195
0.00239781
0.00134552
0.000336714
0.00138179
0.00157984
0.00263096
0.00226204
0.00191919
0.00232775
0.00215404
0.000403333
0.00238051
0.00222911
0.00019849
0.00236711
0.00186526
0.00223055
0.00206691
0.00214903
0.00243183
0.00202816
0.00228858
0.00262434
0.000110661
0.000135557
0.00232895
0.00128743
0.00216018
0.00182824
0.00250389
0.00190164
0.00233399
0.000166413
0.00192608
0.00230831
0.00236848
0.00229429
0.000340667
0.00210365
0.00238433
0.000254315
0.00237916
0.0018597
0.00234352
0.000339239
0.00229165
0.00227243
0.00234326
0.000255501
0.00237805
0.00223194
0.00174605
0.00239081
0.00232514
0.00245378
0.00229452
0.00212678
0.00237154
0.000386466
0.00181639
0.00238176
0.00235577
0.00262247
0.00236896
0.00235695
0.000921992
0.00179445
0.00197313
0.00239215
0.00237322
0.00238506
0.00209359
0.00240196
0.00235176
0.00239567
0.00238446
0.00016893
0.00240804
0.00214686
0.00226958
0.00210163
0.000304901
0.00194639
0.00231314
0.00240442
0.00180914
0.00236148
0.00240311
0.00198519
0.00189049
0.000149169
0.000345838
0.00225537
0.00253154
0.00239095
0.00239565
0.00232378
0.00248121
0.00215605
0.00240529
0.00233489
0.00226431
0.00231469
0.0023393
0.0025417
0.0024016
0.00241081
0.00235551
0.00233326
0.00240299
0.00211568
0.000276415
0.00252231
0.00228676
0.000352287
0.0024174
0.000192888
0.00254638
0.00240286
0.00237044
0.000171968
0.00259595
0.00234578
0.00253749
0.00200797
0.000349708
0.00190194
0.00239659
0.00235112
0.00233884
0.00233847
0.00178168
0.000304069
0.00240578
0.00230336
0.00234441
0.00261635
0.00235049
0.00232064
0.00229172
0.00239773
0.00235497
0.00238272
0.00245714
0.00233366
0.00203743
0.00234553
0.00171063
0.00233599
0.00191233
0.000284881
0.00208618
0.00233216
0.00172603
0.0023702
0.00252848
0.00240599
0.00238235
0.00242079
0.00232847
0.00225626
0.000261919
0.000123446
0.00253004
0.00240947
0.00131723
0.00237105
0.00233576
0.000319529
0.00240554
0.00234785
0.00239982
0.00236233
0.00243142
0.0026257
0.00138722
0.00229172
0.00262361
0.00201543
0.00234602
0.00263059
0.000186932
0.00236107
0.00255612
0.00248696
0.00239429
0.00239565
0.00175763
0.0025505
0.00231099
0.00231743
0.00194474
0.00181422
0.00241202
0.00198358
0.00234233
0.00180162
0.00236496
0.00240412
0.00240317
0.00239139
0.00235994
0.00210472
0.00238772
0.00231445
0.00241071
0.0023638
0.00238641
0.00236683
0.00235444
0.00234625
0.00226375
0.00260444
0.00197773
0.00239532
0.00235418
0.00243592
0.00252461
0.00240639
0.00242174
0.00239676
0.00236464
0.0023489
0.00199037
0.00202526
0.00264953
0.00263805
0.000254925
0.00263953
0.00174944
0.00239286
0.00223693
0.000234009
0.000507516
0.00263757
0.00195601
0.00235797
0.00087593
0.00243927
0.00224788
0.00112838
0.00245327
0.00265394
0.00263416
0.0025432
0.00208186
0.00240435
0.00198015
0.00205274
0.00242686
0.00240843
0.00257041
0.00239647
0.00232793
0.002602
0.00240021
0.000334023
0.00265443
0.00265135
0.00200492
0.00264346
0.00263913
0.00236247
0.0023881
0.00240635
0.00220259
0.00256048
0.00236324
0.00258915
0.00234821
0.00240534
0.000453749
0.0019651
0.00240644
0.00261535
0.00241534
0.000127931
0.00228217
0.00198695
0.00235749
0.00262891
0.00136508
0.00237504
0.00201622
0.00197802
7.62278e-05
0.00253528
0.00248157
0.00263676
0.00219443
0.00220152
0.00245911
0.00196179
0.00245324
0.0024041
0.00244781
0.00236122
0.00241492
0.00265544
0.00196314
0.00237749
0.00265816
0.00206305
0.00246607
0.00197771
0.00204713
0.00263912
0.0023255
0.00237759
0.00196658
0.00241569
0.00254798
0.00240707
0.00246536
0.001965
0.00242086
0.00240012
0.00263037
0.00159032
0.00241071
0.00201
0.00219547
0.00230748
0.00240923
0.00217206
0.00264652
0.000163728
0.00248446
0.00237342
0.0024083
0.00259833
0.00263018
0.00195918
0.0024136
0.0023794
0.00226716
0.00241884
0.00258014
0.0026353
0.00195737
0.00262268
0.00239191
0.00197325
0.00181612
0.00193282
0.00201848
0.00261372
0.00264438
0.00245547
0.0024134
0.00237116
0.00212375
0.00195119
0.00238983
0.00255738
0.00201551
0.00238862
0.00237108
0.00250607
0.00263842
0.00260145
0.00249298
0.00244
0.00252867
0.00265072
0.00196329
0.00206529
0.00233237
0.00261372
0.00244294
0.00233121
0.00167719
0.00241768
0.0019536
0.00238186
0.00265939
0.00249746
0.00262217
0.00255875
0.00228956
0.00230787
0.00266005
0.00262654
0.00212043
0.00198991
0.0019783
0.00232977
0.00264858
0.00220205
0.00195017
0.00263914
0.00240088
0.00246805
0.00257963
0.00241669
0.00262274
0.00263622
0.00197412
0.00242125
0.00243738
0.00259581
0.00196064
0.00263833
0.00244672
0.00262154
0.00242723
0.00243267
0.00240458
0.00173942
0.0021285
0.00249262
0.00192282
0.00254925
0.00194329
0.00189929
0.00200895
0.00265692
0.00244952
0.002017
0.00184224
0.00201353
0.00195572
0.00231955
0.00164117
0.00239551
0.00258589
0.00234045
0.00238445
0.00236104
0.00264192
0.00239653
0.00231068
0.0025384
0.00258404
0.00194407
0.00217984
0.00191454
0.00176628
0.00154349
0.00223897
0.00237588
0.00199468
0.00194991
0.00195653
0.00255327
0.00214593
0.0019735
0.00242708
0.00238802
0.0023879
0.00194802
0.00254647
0.00244723
0.00212012
0.0025895
0.00242566
0.00264432
0.00182353
0.00199179
0.00266355
0.00195286
0.0019657
0.00261191
0.00245206
0.00260487
0.00137034
0.00168379
0.00266077
0.0017041
0.00251928
0.002342
0.00204434
0.00195016
0.000309277
0.00145683
0.00156914
0.00265403
0.00265308
0.0023222
0.00265993
0.00185748
0.00113832
0.00265332
0.00250141
0.00235898
0.00193655
0.00259969
0.00243649
0.00243588
0.0019943
0.00167669
0.00201986
0.00261856
0.00183311
0.00233443
0.00195637
0.00263971
0.00243229
0.00201036
0.00130099
0.00231818
0.00263498
0.0024864
0.0023919
0.00197937
0.00249192
0.00240116
0.00175922
0.00261361
0.00245272
0.00188027
0.00257965
0.00212941
0.00232837
0.00179803
0.00193264
0.00118429
0.00210099
0.0021687
0.00231711
0.00260943
0.00250436
0.00256193
0.0019432
0.00203358
0.00211367
0.00264104
0.00197032
0.00264416
0.00234545
0.00203906
0.00195217
0.00257544
0.00207989
0.00245247
0.00177136
0.00261389
0.00189418
0.00242416
0.00201087
0.00188059
0.00197394
0.00167982
0.002417
0.0025804
0.00262487
0.00236504
0.00199122
0.00257721
0.00194033
0.00193654
0.00195454
0.00248143
0.00171037
0.00235535
0.00263572
0.00255298
0.00249238
0.00257445
0.00156943
0.00180152
0.00266689
0.00266874
0.00264924
0.00266663
0.00198383
0.00250286
0.00265802
0.00179083
0.00266022
0.00170298
0.00236082
0.00255148
0.00236843
0.00202402
0.00193508
0.00265976
0.00179974
0.00244949
0.00194606
0.00197049
0.00252933
0.00177164
0.00208503
0.00198009
0.0014485
0.00210278
0.0024985
0.00201277
0.00264422
0.00192663
0.00194225
0.00161695
0.00251044
0.00165284
0.00199953
0.0024575
0.00257873
0.0018657
0.00266306
0.00116202
0.00244002
0.00261711
0.00246139
0.00174266
0.00256517
0.000282187
0.0001647
0.00129268
0.00200118
0.00261636
0.00258683
0.00182166
0.00226979
0.00196157
0.0026721
0.0019933
0.00266421
0.00231524
0.00265571
0.00181127
0.00149854
0.00262642
0.00250802
0.000209851
0.00237156
0.000468093
0.00193333
0.00174707
0.00192633
0.00259692
0.00198579
0.00212
0.00252117
0.00228645
0.00229616
0.00245914
0.00239778
0.00135054
0.00137935
0.00263718
0.00241836
0.00263243
0.00265124
0.00256388
0.00197905
0.00175326
0.00201736
0.00194492
0.00166408
0.0020388
0.00258186
0.00203244
0.00222896
0.00248756
0.00198453
0.00267263
0.00192775
0.00200896
0.00164841
0.00233629
0.00173085
0.00247588
0.00256119
0.00200311
0.00244281
0.00243068
0.00260176
0.00208354
0.0026783
0.00231138
0.00173872
0.00188265
0.00267369
0.00249264
0.00196273
0.00254881
0.00266549
0.00123079
0.0021009
0.00193127
0.00175552
0.00200205
0.00200044
0.00238376
0.00250155
0.0026487
0.00232956
0.00261183
0.00257384
0.00193824
0.00244621
0.0026412
0.00226423
0.000249836
0.00192842
0.00166881
0.00266533
0.00157962
0.00199351
0.00197344
0.00179372
0.00249002
0.00267209
0.00158633
0.00266003
0.00262326
0.00195303
0.00267486
0.00257711
0.00169729
0.00258466
0.0025215
0.00191636
0.00204264
0.00198297
0.00203493
0.0024645
0.00268037
0.00258519
7.20016e-05
0.00235257
0.000267599
0.00205927
0.00201902
0.000890353
0.00186213
0.00206391
0.00197527
0.00265155
0.00191552
0.00257334
0.00261861
0.00153218
0.00249066
0.00259479
0.00229388
0.00181534
0.00192709
0.00148773
0.00245859
0.0026787
0.00267316
0.00230032
0.00240915
0.00171294
0.00245891
0.00151966
0.00200991
0.00156599
0.00169305
0.00257276
0.0019212
0.00164279
0.00257388
0.00194106
0.00240046
0.00251338
0.00164575
0.000231334
0.00209804
0.0023666
0.00191628
0.0026742
0.00242226
0.00213316
0.00199911
0.00246106
0.00235932
0.0026211
0.00266331
0.00195724
0.00253369
0.000203777
0.00267731
0.00268047
0.00267659
0.00265778
0.00264131
0.00173553
0.00261768
0.00159947
0.00243339
0.00192123
0.00134044
0.00204438
0.00199194
0.00268413
0.0014778
0.00207581
0.00268699
0.00206825
0.00238502
0.00264697
8.45755e-05
0.00138604
0.00254637
0.00145068
0.00202966
0.00193592
0.00247342
0.0024523
0.00261446
0.00197664
0.00147148
0.00260244
0.00164215
0.00252828
0.00249736
0.00261146
0.00209517
0.00194998
0.0026639
0.0020151
0.00185818
0.00227131
0.00196952
0.002688
0.0019022
0.00209771
0.00254727
0.00248379
0.000130402
0.00258878
0.00138387
0.00027996
0.00213128
0.00197014
0.00227648
0.0014813
0.00264418
0.00177569
0.00200685
0.000219192
0.00191025
0.0026695
0.000103217
0.00165752
0.00015143
0.00152248
0.00268944
0.00193504
0.00254126
0.0019176
0.00252736
0.001482
0.00242268
0.00267734
0.0019919
0.00207787
0.00145847
0.00248821
0.00193345
0.00246301
0.00205501
0.00265042
0.00237069
0.00216066
0.0021103
0.00264404
0.00199458
0.00265332
0.00211803
0.00169733
0.00194322
0.00203309
0.00259081
0.00198531
0.00222061
0.00232884
0.00188319
0.00200132
0.00242369
0.00253564
0.00195407
0.00190046
0.00247873
0.00183356
0.00267159
0.00267795
0.00160832
0.00202181
0.00141746
0.00178052
0.00269576
0.00191276
0.00197402
0.00265877
0.0023826
0.00266585
0.00216786
0.00196793
0.00144654
0.0026894
0.00214
0.00266185
0.00262013
0.00215011
0.00213248
0.00192955
0.00200465
0.00268588
0.00268739
0.0026838
0.00011819
0.00248505
0.0024843
0.00225645
0.00193899
0.00250639
0.00237481
0.00235337
0.00181968
0.00169113
0.00260669
0.00264506
0.00136385
0.0013741
0.00194892
0.00239028
0.00225385
0.00199789
0.00162713
0.00265861
0.00261016
0.00259156
0.00269671
0.0020567
0.00254577
0.00212112
0.00208927
0.00226157
0.00196224
0.00268923
0.0015269
0.00197893
0.00235288
0.00242974
0.00203875
0.00268954
0.00250722
0.00187916
0.00215454
0.00161271
0.00190052
0.00233403
0.00156878
0.00248468
0.00267475
0.00201493
0.0025419
0.00140569
0.00269371
0.00139738
0.00197214
0.00191748
0.0021617
0.0023877
0.000286387
0.00269704
0.00192883
0.00200868
0.000595866
0.00216151
0.00193213
0.00113815
0.00159511
0.00183864
0.00247546
0.00216417
0.00269603
0.00220968
0.00194395
0.00267641
0.000597423
0.000594167
0.00198839
0.00217401
0.00267542
0.00233311
0.002389
0.00143358
0.00189433
0.00195487
0.00173435
0.000599173
0.00208992
0.000998511
0.00164339
0.00213443
0.00264475
0.00206253
0.00149671
0.00261106
9.49789e-05
0.000102546
0.00244076
0.00161231
0.00198057
0.00266934
0.00191273
0.0020255
0.00216954
0.00157275
0.00270513
0.00266734
0.00263221
0.00203769
0.00225323
0.00192396
0.00060008
0.00247655
0.00268443
0.00255202
0.00270077
0.0019209
0.00186941
0.00201674
0.00262538
0.00255757
0.00132418
0.00193065
0.00270239
0.000121991
0.00132128
0.00155111
0.00196079
0.000598021
0.00199654
0.00194647
0.00059285
0.000202887
0.00225966
0.00254623
0.00270007
0.0026536
0.00268809
0.00268642
0.00158952
0.00246747
0.00203147
0.00219422
0.0021926
0.000132785
0.000601221
0.00199002
0.000261971
0.00136506
0.00221627
0.00246629
0.00195016
0.00268667
0.0018227
0.00165312
0.00140874
0.00253788
0.00264627
0.00219343
0.00221427
0.00238946
0.0026112
0.00255219
0.00153702
0.00271031
0.00174713
0.00223975
0.0018812
0.00028521
0.00196684
0.00213294
0.0020416
0.000605537
0.00189584
0.00209738
0.00226282
0.000592324
0.00267765
0.00132465
0.00202683
0.00190181
0.0015225
0.00246864
0.00270517
0.00222009
0.00186193
0.00236222
0.00190048
0.00200122
0.00141265
0.00246784
0.00265143
0.00189204
0.00269272
0.00152634
0.00270858
0.00204087
0.00176724
0.00269109
0.00195367
0.00263764
9.8152e-05
0.000116243
0.00218639
0.00199592
0.00192172
0.00187696
0.00270552
0.00156466
0.00148431
0.00102732
0.000605994
0.00263363
0.00197435
0.00221348
0.00266837
0.00265896
0.00262587
0.00268119
0.00182241
0.00236498
0.00183959
0.00269213
0.00260955
0.00226218
0.00130746
0.00128674
0.00271382
0.00192779
0.00226267
0.00186575
0.000167254
0.00224808
0.00187929
0.00261507
0.00188672
0.0025142
0.000591112
0.00256998
0.00178584
0.000342452
0.00226047
0.00256989
0.00186872
0.000136128
0.00167674
0.00196014
0.00155428
0.00157922
0.00189393
0.00180605
0.00266857
0.0020662
0.00256148
0.0014461
0.00144545
0.00246419
0.00200418
0.00271187
0.00204417
0.00170994
0.00151474
0.00110416
0.00244038
0.0026247
0.000282133
0.00257257
0.000601006
0.0021434
0.00269581
0.00226884
0.0019985
0.00258863
0.00191032
0.00251614
0.00134803
0.00227249
0.0015312
0.00264684
0.00269262
0.00224916
0.00192919
0.000297483
0.00217738
0.00197361
0.00131003
0.00270478
0.00254532
0.00246213
0.00244342
0.000298364
0.00179403
0.00265946
0.00232032
0.000299078
0.00123504
0.00196548
0.00263253
0.00239296
0.00139879
0.00259517
0.00229877
0.000183569
0.00262993
0.00249408
0.00255198
0.00191359
0.00228262
0.000296722
0.00260469
0.00263356
0.00144258
0.00236039
0.00270594
0.00159258
0.00228521
0.00223369
0.00158208
0.00257969
0.00157299
0.0027136
0.00029858
0.0002988
0.00143969
0.00172158
0.0025703
0.000139215
0.00229941
0.00250029
0.000343975
0.00236606
0.00193418
0.00264891
0.00268627
0.000179862
0.000299725
0.0025358
0.00266479
0.000599043
8.17465e-05
9.12561e-05
0.00138283
0.00140506
0.00253585
0.00132842
0.00200988
0.00269788
0.00207086
0.00243694
0.00269523
0.00229205
0.000125218
0.00226968
0.00029647
0.000296516
0.00271263
0.00266057
0.00131564
0.000301469
0.00209767
0.00134703
0.00200068
0.000403114
0.00147413
0.000408698
0.00228883
0.000291688
0.00146437
0.00162873
0.000409725
0.00269779
0.000285455
0.00244381
0.00197747
0.000580298
0.000402998
0.002495
0.00040252
0.00257259
0.000183046
0.000407283
0.00191898
0.00124156
0.00249659
0.00257069
0.00016963
0.000302042
0.00044669
0.00221212
0.00151416
0.0023334
0.00219155
0.00258874
0.00196829
0.00260963
0.00229671
0.0019921
0.00230145
0.00040496
0.00260185
0.00181427
0.00236841
0.00257887
0.00227973
0.00153497
0.00205858
0.00013782
0.00128423
0.000423369
0.00268676
0.00266658
0.00229981
0.00193855
0.00238595
0.00140667
0.0024432
0.00228173
0.000300619
0.00257376
0.00266855
0.00145361
0.000613335
0.00246864
0.00242048
0.00261311
0.00266531
0.00229033
0.000392248
0.00224302
0.0020202
0.000366643
0.00233252
0.00269863
0.000595318
0.00257121
0.00262676
0.00269548
0.000411037
0.00260037
0.00213024
0.00200809
0.000328003
0.00228359
0.0019255
0.00258758
0.00227992
0.000292806
0.00222481
0.00246084
0.00210604
0.00270606
0.00228905
0.0026084
0.00135383
0.0026972
0.00122852
0.00270661
0.00144046
0.00232522
0.00011715
0.000628189
0.000617081
0.000299769
0.00197851
0.000285078
0.00223823
0.00238863
0.00121351
0.000313129
0.000138554
0.00133382
0.00228448
0.00262799
0.00266764
0.00141443
0.00256701
0.00257033
0.000304784
0.0022463
0.00141113
0.00227075
0.00216448
0.00241021
0.00225244
0.00196651
0.00144962
0.00247569
0.00042523
0.00227711
0.00214107
0.00247801
0.00203473
0.001237
0.000194998
0.00261909
0.000464657
0.000196332
0.00221868
0.000196189
0.0022719
0.00266717
0.000192219
0.00223628
0.000576822
0.000189852
0.00222567
0.00247236
0.000317096
0.000186581
0.000206218
0.00202056
0.00198202
0.00224067
0.00266632
0.00194244
0.00217712
0.00261393
0.0020048
8.41534e-05
8.13395e-05
0.000190171
0.00198426
0.00226306
0.00220975
0.000620328
0.0021541
0.000261612
0.000623076
0.00205671
0.00220931
0.000620455
0.000323549
0.00148754
0.00127711
0.000183026
0.000623494
0.00220747
0.00014393
0.00246578
0.00213493
0.00217226
0.00255488
0.00203859
0.000196744
0.000187437
0.00225578
0.00219615
0.000169158
0.00268733
0.000432941
0.00216118
0.00193008
0.000113896
0.000280625
0.000290415
0.000556514
0.00151282
0.00247054
0.00268663
0.00218703
0.00220242
0.00268472
0.00245433
0.00198843
0.00269003
0.00207001
0.000146444
0.0026695
0.00246084
0.00196659
0.000321487
0.00262028
0.000184492
0.00269002
0.00161494
0.000259942
0.000258778
0.00255875
0.00204769
0.00207611
0.00204775
0.000263188
0.00205783
0.000110991
0.000316497
0.000582389
0.00211541
0.00266215
0.0026493
0.00199443
0.00262339
0.0020531
0.000630147
0.00197959
0.000293302
0.000292248
0.0024683
0.000146428
0.00211279
0.000572102
0.00205616
0.00266208
0.0019454
0.00265224
0.00207152
0.00261909
0.00109811
0.00266784
0.000187559
0.000151388
0.00203242
0.000310218
0.000147505
0.00263266
0.00202182
0.00202707
0.000308958
0.00199996
0.000261336
0.000508447
0.0026632
0.00266372
0.000308361
0.00057088
0.00198124
0.000308759
0.00268408
0.00201474
0.000145908
0.00199586
0.00262052
0.00201051
0.000574131
0.00194248
0.00264595
0.000146718
0.000141177
0.00263018
0.001085
0.00210564
0.00260886
0.00253846
0.00260716
0.00199106
0.00203289
0.000312768
0.00254484
0.00261451
0.00198482
0.0026108
0.00199275
0.00243638
0.000239404
0.000103771
0.001979
0.00264626
0.00244389
0.00137935
0.00205292
0.000478708
0.00025793
0.00257569
0.00258583
0.000473781
0.00260464
0.000433834
0.000191736
0.00196999
0.0019827
0.00197902
0.00194702
0.00028491
0.000283199
0.00193437
0.000570447
0.000487357
0.0004687
0.00195731
0.00140957
0.00197513
0.00254744
0.00194111
0.000221867
9.31435e-05
0.00261813
0.00195456
0.00251275
0.00063299
0.000315654
0.00257551
0.00257663
0.00205213
0.00252038
0.00193351
0.00241992
0.0025774
0.000465031
0.000281947
0.0019447
0.000579722
0.00193098
0.000234144
0.00241033
0.000238076
0.000486133
0.000238532
0.00252269
0.000286929
0.00254172
0.000568533
0.00195328
0.00259651
0.000230803
0.000462522
0.00195266
0.000419967
0.000432105
0.000195142
0.0025342
0.000143255
0.00248811
0.000228134
0.00190601
0.00251943
0.00237374
0.000280179
0.000312917
0.00062858
0.000621298
0.000486373
0.000564326
0.000241939
0.0002254
0.00238622
0.00245733
0.0024705
0.0019286
0.000276846
0.000219967
0.000455344
0.0018994
0.00243564
0.00239869
0.00192608
0.00254324
0.00247667
0.00193636
0.000271104
0.000559287
0.00194236
0.000289884
0.000577178
0.000281308
0.000557607
0.00231433
0.00240054
8.22878e-05
0.000171351
0.000229382
6.67394e-05
0.000511946
9.57519e-05
0.000195682
0.000416336
0.000240678
0.000415307
0.000199205
0.000200192
0.000429422
0.000199594
0.000196581
0.000436431
0.000598638
0.00029573
0.000315574
0.000289744
0.000588932
0.000301311
0.000609723
0.00026278
0.000198226
0.00020207
0.000426384
0.000205294
0.000204948
0.000429357
0.000307721
0.00232657
0.00237421
0.00242835
0.00249079
0.00245255
0.000298264
0.000133036
0.00160576
0.00141877
0.00149795
0.00012324
0.00134772
0.00197779
0.00109452
0.00136988
0.000290307
0.000199368
0.00237264
0.00147915
0.00013345
0.000118917
0.000112177
0.0019674
0.000876861
0.00170388
0.00200057
0.000113992
0.00150803
0.00205854
0.0015716
8.52823e-05
8.33228e-05
9.32649e-05
7.79971e-05
0.000119448
7.7478e-05
8.32066e-05
8.03456e-05
0.00214339
0.000267113
0.0013742
7.32153e-05
5.58814e-05
5.98799e-05
0.000256462
0.0020414
0.00196912
8.4634e-05
6.68448e-05
6.5016e-05
0.00139686
0.00146693
0.000190252
0.00143777
0.00233776
0.00118327
0.000855736
0.000198202
8.20037e-05
0.000268589
0.000169317
0.000284439
0.00017727
0.000177837
0.000172409
5.41481e-05
5.72934e-05
0.00213434
0.00204346
0.00103524
0.00233682
0.000104992
0.000170938
0.000168319
0.000975973
0.0014012
0.000188015
0.00202682
0.00100905
0.00159599
0.00148784
7.38473e-05
0.00133141
0.00107774
0.00115072
0.000181321
0.00246505
0.00131835
0.00203023
9.90959e-05
0.00100774
0.00244734
0.000979948
0.000149756
7.27613e-05
0.00164142
0.00200912
0.00245488
0.000865645
0.00109519
6.55441e-05
0.0020085
0.00239665
0.00112655
0.00246935
0.00199604
0.000185298
0.00199283
0.0024422
0.00135395
0.00197965
0.00137083
0.00123799
0.00115947
4.70335e-05
0.00198261
0.00015323
6.79079e-05
0.00244707
)
;

boundaryField
{
    patch0
    {
        type            nutkWallFunction;
        Cmu             0.09;
        kappa           0.41;
        E               9.8;
        value           nonuniform List<scalar> 
4010
(
0.000163936
0.000163936
0.00021522
0.00021522
0.000261511
0.000261511
0.000269069
0.000269069
0.000215693
0.000215693
0.000270893
0.000270893
0.000273343
0.000273343
0.000274987
0.000274987
0.000275171
0.000275171
0.000257054
0.000257054
0.000274014
0.000274014
0.000267042
0.000267042
0.000204077
0.000204077
0.000269034
0.000269034
0.000298514
0.000298514
0.00029657
0.00029657
0.000210065
0.000210065
0.000272068
0.000272068
0.000155353
0.000155353
0.000273847
0.000273847
0.000191177
0.000191177
0.000211453
0.000211453
0.000217586
0.000217586
0.000275514
0.000275514
0.000215386
0.000215386
0.000267161
0.000267161
0.000269545
0.000269545
0.00019808
0.00019808
0.000227351
0.000227351
0.000271938
0.000271938
0.000223922
0.000223922
0.000238817
0.000238817
0.000158806
0.000158806
0.000209993
0.000209993
0.000219985
0.000219985
0.000204419
0.000204419
0.000256669
0.000256669
0.000225772
0.000225772
0.000271627
0.000271627
0.000225864
0.000225864
0.000263515
0.000263515
0.000191019
0.000191019
0.000262169
0.000262169
0.00019726
0.00019726
0.000257214
0.000257214
0.000212979
0.000212979
0.000155407
0.000155407
0.000267311
0.000267311
0.000103756
0.000103756
0.000155377
0.000155377
0.000152988
0.000152988
0.000200316
0.000200316
0.000209622
0.000209622
0.000135439
0.000135439
0.000206458
0.000206458
0.000231218
0.000231218
0.000152734
0.000152734
0.000257837
0.000257837
0.000194088
0.000194088
0.000284394
0.000284394
0.00018499
0.00018499
0.000295815
0.000295815
0.000183165
0.000183165
0.000272023
0.000272023
0.000131107
0.000131107
0.000268254
0.000268254
0.000291672
0.000291672
0.000225266
0.000225266
0.000223499
0.000223499
0.000156554
0.000156554
0.000202145
0.000202145
0.000297256
0.000297256
0.000272133
0.000272133
0.000271928
0.000271928
0.000269147
0.000269147
0.000207033
0.000207033
0.000272284
0.000272284
0.000267302
0.000267302
0.000271602
0.000271602
0.000177327
0.000177327
0.00027151
0.00027151
0.000273819
0.000273819
0.000265508
0.000265508
0.000193114
0.000193114
0.000153503
0.000153503
0.000226195
0.000226195
0.000197188
0.000197188
0.0002963
0.0002963
0.000108641
0.000108641
0.000202608
0.000202608
0.000288303
0.000288303
0.000276882
0.000276882
0.000211799
0.000211799
0.000226132
0.000226132
0.000208134
0.000208134
0.000113282
0.000113282
0.000272821
0.000272821
0.00027123
0.00027123
0.000283219
0.000283219
0.000210402
0.000210402
0.000252032
0.000252032
0.000203245
0.000203245
0.000282623
0.000282623
0.00027892
0.00027892
0.000240365
0.000240365
0.000266418
0.000266418
0.000248783
0.000248783
0.00022976
0.00022976
0.000284065
0.000284065
0.00023013
0.00023013
0.000273524
0.000273524
0.000239413
0.000239413
0.000224647
0.000224647
0.000269825
0.000269825
0.000273564
0.000273564
0.00018582
0.00018582
0.000262903
0.000262903
0.000294352
0.000294352
0.000228934
0.000228934
0.000274882
0.000274882
0.000128823
0.000128823
3.65208e-05
3.65208e-05
0.000162279
0.000162279
0.000184648
0.000184648
0.000297165
0.000297165
0.000252833
0.000252833
0.00022195
0.00022195
0.000267427
0.000267427
0.000248934
0.000248934
4.30215e-05
4.30215e-05
0.000273582
0.000273582
0.000258575
0.000258575
2.11456e-05
2.11456e-05
0.000267817
0.000267817
0.000203728
0.000203728
0.000258487
0.000258487
0.0002311
0.0002311
0.000239467
0.000239467
0.000279183
0.000279183
0.000233844
0.000233844
0.000216663
0.000216663
0.000296495
0.000296495
1.31219e-05
1.31219e-05
1.31219e-05
1.1897e-05
1.1897e-05
1.1897e-05
0.00026848
0.00026848
0.000123795
0.000123795
0.000237207
0.000237207
0.000211945
0.000211945
0.000283193
0.000283193
0.000198683
0.000198683
0.00026362
0.00026362
1.91196e-05
1.91196e-05
1.91196e-05
0.000222646
0.000222646
0.000267038
0.000267038
0.000271777
0.000271777
0.000263433
0.000263433
3.69119e-05
3.69119e-05
0.000237122
0.000237122
0.000273958
0.000273958
3.07414e-05
3.07414e-05
0.000271502
0.000271502
0.0002019
0.0002019
0.000270082
0.000270082
3.67724e-05
3.67724e-05
0.000214611
0.000214611
0.000262513
0.000262513
0.000269683
0.000269683
2.83701e-05
2.83701e-05
0.000273084
0.000273084
0.000257641
0.000257641
0.000203878
0.000203878
0.000274331
0.000274331
0.000267103
0.000267103
0.00027974
0.00027974
0.000224964
0.000224964
0.000231798
0.000231798
0.000272333
0.000272333
4.57641e-05
4.57641e-05
0.000182623
0.000182623
0.000273585
0.000273585
0.000269497
0.000269497
0.00029354
0.00029354
0.000271438
0.000271438
0.000270869
0.000270869
9.12538e-05
9.12538e-05
0.000190157
0.000190157
0.000227544
0.000227544
0.000273141
0.000273141
0.000272766
0.000272766
0.000273732
0.000273732
0.000241663
0.000241663
0.000275328
0.000275328
0.000267627
0.000267627
0.000274724
0.000274724
0.000272688
0.000272688
1.93875e-05
1.93875e-05
1.93875e-05
0.000265965
0.000265965
0.000234502
0.000234502
0.000259646
0.000259646
0.000233633
0.000233633
3.36499e-05
3.36499e-05
0.000205086
0.000205086
0.000266656
0.000266656
0.000270046
0.000270046
0.000210512
0.000210512
0.00026992
0.00026992
0.000270627
0.000270627
0.000226184
0.000226184
0.00021848
0.00021848
1.35858e-05
1.35858e-05
1.35858e-05
3.74268e-05
3.74268e-05
0.000255429
0.000255429
0.000285619
0.000285619
0.000271114
0.000271114
0.000273184
0.000273184
0.00026709
0.00026709
0.000282627
0.000282627
0.0002454
0.0002454
0.000267376
0.000267376
0.00026823
0.00026823
0.000260522
0.000260522
0.000262737
0.000262737
0.000269628
0.000269628
0.000286613
0.000286613
0.000266907
0.000266907
0.000264018
0.000264018
0.000267183
0.000267183
0.000267877
0.000267877
0.000263357
0.000263357
0.000242693
0.000242693
3.14841e-05
3.14841e-05
0.000284208
0.000284208
0.000260753
0.000260753
4.1361e-05
4.1361e-05
0.000264694
0.000264694
2.26444e-05
2.26444e-05
2.26444e-05
0.000286746
0.000286746
0.00026917
0.00026917
0.000272595
0.000272595
1.97093e-05
1.97093e-05
1.97093e-05
0.000294833
0.000294833
0.000259973
0.000259973
0.00028707
0.00028707
0.000218336
0.000218336
3.91705e-05
3.91705e-05
0.00021968
0.00021968
0.000266538
0.000266538
0.000246939
0.000246939
0.000267564
0.000267564
0.000268181
0.000268181
0.000167271
0.000167271
3.32722e-05
3.32722e-05
0.000263608
0.000263608
0.000265665
0.000265665
0.000269292
0.000269292
0.000294453
0.000294453
0.000266208
0.000266208
0.000260079
0.000260079
0.000263859
0.000263859
0.000268737
0.000268737
0.000270461
0.000270461
0.000267726
0.000267726
0.000280217
0.000280217
0.000267086
0.000267086
0.000230399
0.000230399
0.000269362
0.000269362
0.000186064
0.000186064
0.000268133
0.000268133
0.000207762
0.000207762
3.14481e-05
3.14481e-05
0.000240873
0.000240873
0.000252578
0.000252578
0.00020152
0.00020152
0.000269096
0.000269096
0.000284918
0.000284918
0.000274392
0.000274392
0.000265427
0.000265427
0.00026983
0.00026983
0.00026855
0.00026855
0.000250139
0.000250139
2.91178e-05
2.91178e-05
1.44806e-05
1.44806e-05
1.44806e-05
0.000285431
0.000285431
0.000263791
0.000263791
0.000126243
0.000126243
0.000272318
0.000272318
0.000264972
0.000264972
3.48069e-05
3.48069e-05
0.00027573
0.00027573
0.000265806
0.000265806
0.000269222
0.000269222
0.000271248
0.000271248
0.00027642
0.00027642
0.000294556
0.000294556
0.000163051
0.000163051
0.000215002
0.000215002
0.000296821
0.000296821
0.000217244
0.000217244
0.000269001
0.000269001
0.000295097
0.000295097
2.12758e-05
2.12758e-05
2.12758e-05
0.000271823
0.000271823
0.00028754
0.00028754
0.000282578
0.000282578
0.000273397
0.000273397
0.000264357
0.000264357
0.00018427
0.00018427
0.000286612
0.000286612
0.000262497
0.000262497
0.000264777
0.000264777
0.000224192
0.000224192
0.000187178
0.000187178
0.000264057
0.000264057
0.000209838
0.000209838
0.000266405
0.000266405
0.000181915
0.000181915
0.000271354
0.000271354
0.00027607
0.00027607
0.000263038
0.000263038
0.000273942
0.000273942
0.00027087
0.00027087
0.000234672
0.000234672
0.000274095
0.000274095
0.000264152
0.000264152