/*--------------------------------*- C++ -*----------------------------------*\
  =========                 |
  \\      /  F ield         | OpenFOAM: The Open Source CFD Toolbox
   \\    /   O peration     | Website:  https://openfoam.org
    \\  /    A nd           | Version:  8
     \\/     M anipulation  |
\*---------------------------------------------------------------------------*/
FoamFile
{
    version     2.0;
    format      ascii;
    class       volScalarField;
    location    "0.9";
    object      p;
}
// * * * * * * * * * * * * * * * * * * * * * * * * * * * * * * * * * * * * * //

dimensions      [1 -1 -2 0 0 0 0];

internalField   nonuniform List<scalar> 
1924
(
0
-2.74791
-6.98065
-7.61852
-3.32582
-9.09727
-7.44005
-8.1867
-7.69606
-5.40622
-8.13216
-8.96971
2.5619
-9.92415
-37.5892
-40.0893
2.67032
-10.2245
8.91534
-12.009
1.63287
4.66515
3.77475
-12.5393
5.10313
5.35463
4.2939
-4.90922
-4.57397
10.4451
3.55432
5.68823
-3.62592
2.98448
-4.88051
4.16701
5.27707
-4.66504
12.1225
3.12312
5.02057
1.37081
5.41737
4.06586
11.1437
-5.44797
2.48258
-0.773274
94.6778
1.44921
14.1969
1.48312
3.79721
34.9237
-4.83281
-6.8419
10.1347
-2.33702
-7.7233
-0.223054
4.58631
-34.2193
4.32859
18.565
89.1195
-1.92816
-20.2265
4.16128
-5.58137
7.83178
0.286986
-35.722
16.2454
9.05399
8.04579
-2.1487
-7.44809
6.15841
3.46283
5.46629
-4.36061
2.68808
8.04609
1.29949
-0.798097
4.53569
-27.2861
-30.5837
42.0638
0.590642
-14.4345
3.21974
-5.59039
-6.53221
0.437248
157.947
-9.80334
-5.76044
0.38096
-0.968227
-7.97093
1.04044
-0.60802
2.12359
-6.69619
2.19056
-8.93898
-4.79066
1.41616
-6.64555
-4.84949
-7.20309
-3.17543
13.2228
3.42223
1.20842
-8.0648
-48.2163
5.66141
-0.128554
15.5141
621.861
1.33678
1.0461
-29.4742
-5.92554
-2.2358
5.19539
-7.32271
680.262
-2.52729
-9.07093
-4.89549
9.66904
1.27032
-7.61256
-6.52424
-7.65519
-14.7864
-3.56416
-8.58729
-29.1687
6.16276
-6.59256
-9.46162
534.52
-4.80553
-0.364681
1.14979
5.98765
14.1916
719.647
-1.65157
-9.33511
-9.60572
-5.49621
619.261
-6.59743
-4.68849
-1.05886
13.1496
-2.13709
-9.53799
629.465
27.9388
-7.44101
-6.06427
662.686
0.425571
-7.55593
-3.74183
-9.4215
2.00626
2.27328
-18.9845
-3.50543
14.0114
0.345638
5.20539
-8.6957
-2.55699
-51.9182
5.83412
-5.37906
225.896
-5.04052
-2.07149
-1.76778
-1.2189
8.5697
-4.01745
-8.35453
-4.08089
-8.74032
-5.55318
726.866
-1.48965
-2.8402
-3.49296
-1.63554
-3.77808
-2.24411
-8.08794
-8.53825
-3.80846
-1.74982
-8.85634
-1.16415
-0.740691
-1.29195
636.446
-8.8578
-19.9666
-4.7167
-0.929268
3.53529
2.8206
-4.06721
-8.94343
4.91027
-4.46844
8.57611
-7.15625
-22.6988
-9.2063
-0.495963
-5.38555
-0.532407
-5.43107
-1.47101
-6.0458
-7.55332
-2.85894
-0.0819253
-1.35919
22.6532
-21.3435
-10.2247
-7.47765
734.413
-56.8802
-0.749528
-18.0896
-1.71222
19.7483
-0.177882
-10.2136
-17.589
5.39146
0.432212
-29.3762
671.877
-4.76513
-8.59968
-0.922035
-28.5433
5.28158
0.759843
-4.06465
-11.3731
-4.10251
-6.75008
2.9754
3.53355
5.64831
8.0108
1.81822
2.33523
-4.55721
15.8836
-0.413019
15.6717
-4.27333
1.71393
-7.47103
-4.74603
-11.2714
-0.733601
-9.09683
-1.98699
14.3281
771.467
-9.79766
-6.10714
48.056
7.64864
-5.14752
683.335
-12.2448
0.113191
-7.02839
11.4742
-2.24913
-26.9559
1.46747
41.9967
-31.5913
-0.361635
3.12735
-30.8957
755.869
-8.32605
-19.1614
2.90433
-12.7305
2.91248
5.30433
-16.1172
1.50053
10.4361
-0.291928
7.10944
-5.74596
5.03247
-2.75711
4.0024
-3.41559
-13.5188
-6.84576
-3.52681
8.93453
-0.650894
-8.28485
32.9373
3.21435
-2.26599
0.0910572
2.67595
-14.1084
-6.41697
-1.13257
-18.5436
5.13145
-13.2791
5.17365
-1.73114
-3.12744
-7.88874
-7.38208
-8.1196
-1.35924
14.5606
5.54041
-0.174528
-38.2992
-45.371
-5.06943
-34.3743
7.13971
4.16133
5.65088
10.3359
63.4897
-28.5105
0.481342
0.33686
440.343
-14.9359
1.91435
250.459
-2.71882
-37.1118
-24.2921
-9.60108
5.13151
-8.35804
5.32282
0.227089
-6.90715
-7.73663
-16.5239
-2.82913
3.89724
-57.1947
4.43186
1.04747
-40.6366
-41.4129
5.68553
-41.005
-45.5294
1.27277
0.929629
-3.44188
-0.453975
-13.3233
6.17007
-13.2848
4.59528
-8.75813
35.6248
5.17531
0.753148
-23.1418
-9.60456
-10.7089
5.18429
5.48377
-6.68416
-50.361
474.435
2.84739
1.11769
-5.03704
754.646
-3.82991
-8.47011
-29.1628
2.719
5.34649
-2.17099
5.29742
-16.4607
-10.2588
-8.8741
4.49903
-4.26659
-38.568
4.91191
-12.0688
-34.3633
0.665144
-6.95266
0.49441
5.60439
-25.0894
-2.59497
13.1665
5.52051
3.84364
-7.10303
-3.40645
2.51871
5.62111
-9.58973
4.49171
-20.7937
6.82651
-10.5132
5.65551
0.306392
5.4262
-2.69579
33.4375
-42.6482
-41.2369
-4.01807
3.76541
1.81924
-14.1556
-48.2604
5.44263
-3.75483
-8.4275
5.38357
1.06998
-13.5196
-46.394
5.61621
-52.4889
-1.6032
5.85871
4.29769
5.47166
1.2146
-18.8579
-29.1081
-8.50085
-12.2658
5.75983
5.57016
5.28557
8.94399
-10.6387
3.01684
-0.940442
17.6006
-19.0185
-48.9655
-56.6804
-3.50779
-11.556
-0.796552
-36.7396
5.80276
5.56673
5.84602
-59.4195
3.63301
-3.73698
6.23893
4.60343
5.4816
-8.01507
-34.753
-6.76882
-52.3586
-7.1328
6.29175
33.5772
-30.18
-50.0212
1.04995
5.87256
1.50859
4.45106
-43.1945
6.14201
5.57461
-21.2904
0.631028
-5.43059
-9.7097
-3.26906
-17.7262
-21.736
5.96217
1.62161
-12.7634
-57.5515
5.68297
-46.8545
-3.59263
-17.3192
-4.65281
0.335254
4.89827
6.02157
5.82215
-11.4797
5.80059
-21.855
5.55691
4.68499
2.13615
-35.3888
-11.4738
3.25726
3.84758
5.92026
5.92763
28.7219
7.06235
1.42192
-10.7749
5.69286
13.3804
20.8307
-49.4627
-8.81398
6.31006
-1.20802
-59.2457
5.47534
6.91186
5.08309
6.19125
14.0065
31.4772
16.3317
5.96088
5.72126
-3.52699
-3.52979
1.59266
4.63876
-2.92092
-6.62657
10.2223
5.80868
-8.5134
3.91377
6.92507
-9.15222
3.12306
-19.7004
5.69969
1.81508
-29.85
5.26703
6.07373
-57.6161
-14.836
-12.0134
117.033
6.8832
-38.6012
5.22684
-5.84376
18.7623
6.24814
5.68479
40.6505
44.2863
10.6377
-25.3485
-24.8876
-0.722641
-42.1501
5.62312
288.648
-42.5886
-11.2457
25.3683
5.6426
-26.4666
1.09324
-1.66523
4.48892
4.40168
6.17114
-53.7984
5.42604
-3.66222
6.06335
-54.0624
-4.29239
2.24619
235.616
23.3931
-17.2945
-4.92372
-6.26039
6.10577
-14.7952
6.1004
6.6745
-56.5936
0.0570851
5.68807
-61.7597
6.75486
-1.1054
5.65251
5.65436
310.779
7.03476
29.8012
5.72328
-13.7776
1.41233
-2.38517
5.99913
6.85313
4.62945
-49.5064
6.12355
-58.0247
5.09267
3.00497
5.60251
-4.83655
-5.02234
-5.81523
6.5532
-10.17
5.4408
-1.03326
6.5323
6.16134
5.21409
8.64049
3.73946
-9.01209
-12.6059
24.125
6.29206
-62.0449
5.68593
5.93462
6.10681
-3.76042
5.6134
-5.07348
-53.0103
-7.40308
-16.5326
-62.0974
17.2579
6.22826
-32.9588
-37.0796
-51.8462
-38.6878
6.19772
-15.3527
-21.4749
129.225
-24.8481
8.28896
17.8867
-15.2701
-6.59092
6.84371
5.63107
-44.2797
6.02025
0.509266
6.07431
6.1631
-5.90443
5.66563
6.52334
2.70793
90.6454
6.16338
2.14825
6.7755
-20.6249
5.9153
5.72876
15.0484
0.556284
242.544
6.55755
0.545437
-3.2743
5.30369
-47.8066
104.153
1.53723
-59.6552
-3.22847
7.4104
-63.3662
1.85587
0.516452
288.118
3.47752
-13.8295
-5.55058
6.5286
29.3689
6.15161
-43.7764
6.36673
-26.8785
5.46975
-53.5886
5.0477
42.0167
-9.73262
-5.31716
409.241
-7.11883
72.1117
6.06945
6.37921
5.93537
-11.246
6.19355
2.72538
-19.7663
55.1091
30.4181
-5.38235
16.9234
189.297
498.237
-57.0294
9.30279
-11.9349
-58.716
-8.12669
6.14294
6.19681
6.51747
6.10656
9.99567
6.38596
-64.0193
6.44459
38.2421
1.0874
2.65566
-31.3596
6.07141
6.38028
10.1319
3.37951
5.41917
-2.30961
-20.768
-3.63557
-16.4128
2.43555
-62.1474
6.08367
-41.2684
21.5281
5.62759
5.60243
-38.1266
-0.167219
6.20658
-7.0884
-27.3639
96.905
5.85072
5.6782
5.38547
3.79453
6.24405
22.8037
-4.70743
-54.4608
47.0981
-63.1486
-3.19241
6.14148
6.29955
-19.88
22.9652
400.595
5.85143
7.94778
-50.8463
21.8414
6.12229
5.54849
2.76337
-7.85848
-48.0725
21.5679
-20.6872
-16.3197
6.18046
-38.4823
-4.69478
6.38908
-64.4828
-6.64547
6.10093
6.09549
6.06983
6.1362
-1.4741
-44.858
-11.1823
365.107
-7.75021
408.976
5.90938
6.13676
553.348
5.22514
5.82283
6.06077
-57.563
5.6853
-22.8797
-7.71872
15.7314
-3.98604
-64.3518
2.7064
4.11229
6.16553
78.4709
-1.11924
-41.4803
-51.9857
2.43936
11.2693
1.80122
0.622524
36.2396
6.04093
29.8009
4.87721
-9.29849
5.7985
34.6492
-21.5647
6.17516
18.2685
-6.4956
13.6326
75.8508
5.10995
39.9496
5.96012
-53.8979
0.645929
1.26625
5.94519
0.227743
-9.33094
-9.93634
-24.368
6.08236
-7.26565
87.6079
-55.299
-34.6324
-32.3535
-25.5208
-62.2948
3.72964
-62.7271
9.68321
10.3832
6.26287
260.891
5.73508
5.90479
-40.632
26.9226
5.34887
-44.2265
5.47583
21.0383
-21.5459
81.5573
157.395
-1.88444
27.1225
5.75947
6.25919
-3.43394
-1.18371
-63.5336
5.88877
343.589
-16.2014
8.02566
-6.65229
-7.55903
-27.0996
4.80897
6.23324
-59.4975
5.76741
4.61734
1.74045
3.39864
-42.2972
5.79591
4.39207
-2.17775
-5.46245
83.1102
-13.516
39.504
390.234
2.31597
5.91072
2.41367
29.4953
-62.6869
1.30254
5.71726
76.378
5.99741
-30.4323
33.1188
17.9942
1.28446
22.1225
-51.2537
42.5728
-9.74821
6.13142
-20.5613
34.6651
1.19779
-52.0471
5.66467
4.97901
25.4193
-7.27763
6.25283
-3.07279
5.15321
-60.6145
36.0644
-0.820553
4.43562
-14.9354
-3.16071
-61.0416
4.05809
-2.59446
6.40695
5.38525
-4.29226
5.67199
101.868
79.8931
5.79754
4.63741
1.81268
-8.59247
6.01744
5.87847
-4.53846
3.41416
-30.9384
-35.553
17.4262
5.40118
30.1149
8.64299
-46.3936
6.04524
3.89614
-61.5599
-9.94332
-28.7998
110.294
5.70879
30.6952
-55.377
0.234523
-25.8182
-20.3148
0.409498
2.09699
6.24518
5.40067
-36.1558
-52.7741
-33.5809
237.74
-6.3828
-8.53089
2.12855
6.56518
0.619324
7.70386
18.3789
49.593
-2.23469
-17.5195
-16.7407
207.681
134.077
6.31408
-11.6003
28.8375
5.38911
69.7947
-60.6661
-28.5136
-5.21495
-51.6282
4.76821
-13.3982
3.8586
4.20081
2.46092
5.78326
-42.8499
49.8136
5.43016
-2.63238
-15.5111
4.90243
-46.9003
1.17069
6.10292
2.31851
43.8838
6.02895
75.4164
66.2318
-9.78175
-58.4298
5.02972
-11.4414
45.2861
-56.7264
44.1926
5.53574
6.01418
0.959961
3.23715
383.125
-42.1733
6.15393
5.02788
9.91013
0.0158607
6.87344
154.631
198.514
4.78814
-9.17019
-0.559811
-53.8655
-1.14534
6.92339
-31.3905
-0.163471
20.0974
5.12778
1.50272
-58.3018
-2.39057
4.20812
50.3746
6.10722
5.65464
6.10793
23.8777
3.91901
303.59
16.6512
2.99852
-19.3392
4.21364
65.4765
-7.24145
444.112
450.419
-16.8835
97.7323
5.22243
-29.005
6.03114
4.59974
2.05038
180.869
-46.6697
-27.0283
-22.8393
-3.36815
2.71653
6.14551
-19.3997
-8.96726
-36.0116
0.686109
-55.8077
6.75706
6.01186
4.65289
-20.3901
-16.7542
203.817
7.06519
-42.2484
487.492
268.84
128.126
5.30463
-3.3728
4.728
6.0851
27.6712
337.559
3.2872
-14.5436
-53.8364
-24.8592
-54.0979
-33.269
151.527
4.05111
19.4277
-0.411644
-0.39743
412.755
-5.81347
4.8127
114.94
123.303
0.0711949
-6.83781
5.22417
-36.7154
4.84222
13.6575
156.146
-23.0543
-19.0929
2.00232
137.854
6.66749
-7.21011
1.49126
89.9758
-48.3368
6.56388
-0.890285
5.95807
371.027
4.88054
2.87594
4.10173
-10.6501
6.0489
3.3904
132.319
56.8894
-31.4479
583.079
4.26265
6.16976
252.312
5.80883
-52.9135
3.08559
6.26559
5.12938
7.09515
4.37702
409.769
-2.41307
-21.3347
6.75753
-46.114
167.133
-45.0752
-2.94212
82.1799
-37.2229
4.94536
-22.6873
25.1075
2.27406
1.35056
4.42512
6.03319
66.7017
-51.4758
178.947
229.435
333.751
-16.4735
-20.9699
4.38642
0.0371426
-25.5566
-23.6462
-13.1021
-31.7445
4.70886
5.55332
7.29417
-43.3179
-7.89709
3.4512
313.496
375.89
-47.2961
4.88038
0.483893
6.63516
77.282
-0.490885
7.60045
-6.08175
8.20255
7.51524
120.959
-18.6572
123.599
705.639
0.892323
1.48219
7.32967
403.124
180.413
4.53323
349.529
44.7205
6.60763
7.63517
-27.2705
3.61375
-17.2238
333.678
189.226
-15.8392
4.06854
-45.2966
3.87918
8.28268
316.924
151.798
9.11237
-9.0254
474.407
1.85467
-1.72457
2.63875
-39.2597
3.00193
4.09089
2.19877
6.40705
8.71154
529.308
5.13749
332.922
-18.5289
-35.367
0.0348754
4.60766
15.7919
1.97726
4.01758
594.09
-47.5718
9.78676
-15.0786
10.6454
3.1782
4.99649
-26.666
0.720106
22.3129
72.2735
4.04999
-18.5899
5.15181
307.705
5.62468
3.44169
304.215
-10.4124
13.6599
12.5999
5.7665
0.586566
25.3668
-0.0755805
-20.3218
133.009
6.78784
-47.1326
21.8444
0.802331
0.368363
253.298
-17.737
270.302
-43.5786
-33.9599
1.01813
381.842
6.40248
15.2726
410.991
1.43954
14.4174
78.8836
9.14126
4.26427
-20.4721
-31.0159
256.273
-2.65626
20.6972
-28.9728
3.66068
263.186
164.532
472.456
410.85
23.3774
500.666
3.93141
-38.2838
3.78448
13.3456
-35.6459
1.62724
59.0247
1.34535
37.0389
42.0948
-42.6001
-26.2101
518.686
-7.82552
3.37091
288.944
3.99622
8.74347
397.985
7.71675
6.13516
567.583
328.027
171.123
10.2376
-38.4062
718.873
16.0196
3.91976
147.425
8.82762
19.1504
8.31878
-16.7971
320.106
7.7701
5.2841
121.327
23.2524
17.1665
769.907
-19.7266
7.39317
1.70269
376.568
7.83797
2.55931
1.97129
3.91953
-16.6325
3.28319
4.8055
1.71675
6.91733
-8.59488
166.506
11.2297
-14.1283
1.1698
365.063
-2.90877
484.657
585.832
8.93444
-34.2897
-21.3286
1.52711
3.93021
13.5081
379.704
18.6295
3.8291
-2.62332
-13.5437
-27.2489
515.651
26.5812
-15.6203
20.123
-20.4897
-26.5322
2.27989
10.2396
2.386
4.34731
62.5436
7.99658
-39.0234
-29.2751
7.98253
-13.324
-32.8208
6.79593
-13.5397
3.67171
4.42022
197.94
2.35785
4.95376
-3.1442
2.07341
139.894
2.92529
-14.6086
3.95199
-37.3397
2.07998
-19.3362
369.893
-34.3208
497.487
-36.6171
504.557
9.29148
788.054
29.1363
25.8846
6.99725
4.18743
708.626
3.67128
15.2412
565.509
617.113
583.398
24.9126
2.12357
-13.9038
-23.048
290.712
-7.66522
-8.21368
321.344
4.13458
616.262
2.97164
4.14361
15.5295
3.15816
4.07507
585.693
-15.1202
5.92088
1.64031
4.38757
-10.4085
4.64754
344.711
7.05339
-20.1623
179.114
5.12286
1.43525
6.88055
2.4417
-23.7424
8.56421
5.06418
20.9075
3.302
4.08508
-3.94712
381.409
5.46961
8.37201
4.75488
5.02876
3.6143
-23.2645
3.89565
4.56239
-19.5296
39.7004
260.873
145.41
3.5779
4.84453
14.1414
0.918531
-8.44296
4.91943
695.479
12.4678
4.98441
2.24955
2.94989
495.053
489.264
260.668
5.53244
-16.4248
0.276202
660.541
-5.62378
4.92881
3.95148
-0.401262
5.02526
2.00658
21.4294
15.3145
0.0866355
81.6423
-26.1844
6.15523
4.65811
4.75429
779.79
25.8298
26.698
17.2247
463.056
-11.8959
-26.5735
3.12753
1.11575
-27.001
2.12901
4.88028
-27.8305
5.26351
252.993
-16.1875
3.882
4.66913
707.731
-6.84228
4.55135
-27.2623
144.559
156.359
302.452
-0.501948
5.21381
4.80636
0.680839
21.3429
-0.020268
767.398
684.566
-12.6194
4.54299
-16.7531
-17.2772
5.13224
-6.2954
2.45569
-19.7206
4.83772
-36.0302
-7.31627
-15.9019
355.346
4.21899
-0.54918
5.1452
-14.553
4.32199
-16.8749
-0.890365
-17.4423
551.984
-16.8178
4.45013
427.372
5.22497
-11.2483
756.995
-7.62762
1.88819
0.548678
24.7074
5.18794
18.031
17.1292
-17.6662
-15.5465
7.42241
7.68037
5.03591
-1.45005
-25.526
3.95937
197.818
5.12455
-17.5346
5.11345
-7.53979
4.6474
-6.40862
663.41
556.174
-8.69495
483.266
10.5911
2.38231
8.06936
1.97244
3.69557
0.316532
-16.1234
9.23806
-9.31947
5.15135
2.8405
5.37401
10.6285
684.543
755.8
4.65509
-5.43962
12.3997
679.624
-1.49691
0.470776
17.3482
-0.994979
-10.5948
1.85282
0.708649
5.04161
6.82633
4.64357
5.20944
5.07287
4.93984
-3.13825
4.29244
5.23976
16.1991
-0.736185
3.01863
5.01334
637.167
5.01436
7.32861
5.01587
492.239
362.271
-9.7541
5.15283
16.0261
-18.6153
-17.2563
-1.85586
10.4281
-0.783688
16.763
4.65472
19.8466
9.82664
3.37334
12.5761
5.23366
-16.7849
5.78874
0.750232
18.5159
0.762978
16.6057
17.5375
15.6131
-8.9943
6.05237
23.9011
5.57101
-11.8138
1.71063
3.48253
6.29979
5.37738
4.21818
6.82406
-3.01334
804.656
4.40852
2.05226
6.59153
13.8361
24.3899
21.3092
-5.49889
-8.81281
-2.45856
-3.91013
29.3117
-2.14098
2.66711
24.9076
11.0661
21.2045
5.70645
27.4347
3.44002
6.09388
6.51334
17.9608
25.0716
5.69143
-4.98855
20.988
5.93325
33.5791
35.5624
6.63491
-16.4515
21.7048
23.2452
26.9855
29.9887
23.3096
554.766
684.125
32.449
748.233
32.498
748.468
4.9709
5.97973
7.1585
5.5918
-1.15694
7.3434
5.99183
5.45119
5.5193
5.67163
10.3624
12.609
-12.6755
17.821
15.7296
7.2666
4.63533
27.9804
1.275
2.45668
4.09724
5.1776
5.87802
6.02076
0.135775
29.1135
4.3281
15.9576
2.61816
9.72551
773.118
832.386
214.157
28.3076
171.55
852.57
691.498
5.22979
212.263
653.722
797.558
427.473
2.30052
217.54
102.451
808.641
208.598
5.33382
377.127
119.822
4.56459
363.857
19.8363
-0.569874
206.938
413.399
346.36
438.785
417.207
445.774
408.329
432.147
425.411
12.7511
167.575
316.542
517.002
519.649
521.161
314.327
0.562204
5.49309
503.873
156.498
150.569
368.044
297.497
463.886
33.4712
2.40027
192.962
595.979
539.531
497.513
526.737
470.904
535.86
486.904
461.13
479.005
697.824
592.056
47.3489
0.459599
301.14
0.88643
393.278
468.998
106.093
364.906
11.0394
458.819
1.3692
360.233
7.05456
13.6908
460.895
5.57102
291.725
91.1353
448.543
-8.92156
34.3725
1.41815
438.007
269.234
-12.9621
331.343
148.278
448.36
7.50738
2.90197
-14.9494
256.821
102.659
750.183
3.77437
-7.56502
43.9742
-10.7686
4.45873
207.402
4.67073
-11.1506
68.5904
5.24251
64.9409
128.04
190.26
263.718
5.041
700.647
752.69
-12.882
)
;

boundaryField
{
    patch0
    {
        type            calculated;
        value           nonuniform List<scalar> 
4010
(
7.10543e-15
7.10543e-15
-2.74791
-2.74791
-6.98065
-6.98065
-7.61852
-7.61852
-3.32582
-3.32582
-9.09727
-9.09727
-7.44005
-7.44005
-8.1867
-8.1867
-7.69606
-7.69606
-5.40622
-5.40622
-8.13216
-8.13216
-8.96971
-8.96971
2.5619
2.5619
-9.92415
-9.92415
-37.5892
-37.5892
-40.0893
-40.0893
2.67032
2.67032
-10.2245
-10.2245
8.91534
8.91534
-12.009
-12.009
1.63287
1.63287
4.66515
4.66515
3.77475
3.77475
-12.5393
-12.5393
5.10313
5.10313
5.35463
5.35463
4.2939
4.2939
-4.90922
-4.90922
-4.57397
-4.57397
10.4451
10.4451
3.55432
3.55432
5.68823
5.68823
-3.62592
-3.62592
2.98448
2.98448
-4.88051
-4.88051
4.16701
4.16701
5.27707
5.27707
-4.66504
-4.66504
12.1225
12.1225
3.12312
3.12312
5.02057
5.02057
1.37081
1.37081
5.41737
5.41737
4.06586
4.06586
11.1437
11.1437
-5.44797
-5.44797
2.48258
2.48258
-0.773274
-0.773274
94.6778
94.6778
1.44921
1.44921
14.1969
14.1969
1.48312
1.48312
3.79721
3.79721
34.9237
34.9237
-4.83281
-4.83281
-6.8419
-6.8419
10.1347
10.1347
-2.33702
-2.33702
-7.7233
-7.7233
-0.223054
-0.223054
4.58631
4.58631
-34.2193
-34.2193
4.32859
4.32859
18.565
18.565
89.1195
89.1195
-1.92816
-1.92816
-20.2265
-20.2265
4.16128
4.16128
-5.58137
-5.58137
7.83178
7.83178
0.286986
0.286986
-35.722
-35.722
16.2454
16.2454
9.05399
9.05399
8.04579
8.04579
-2.1487
-2.1487
-7.44809
-7.44809
6.15841
6.15841
3.46283
3.46283
5.46629
5.46629
-4.36061
-4.36061
2.68808
2.68808
8.04609
8.04609
1.29949
1.29949
-0.798097
-0.798097
4.53569
4.53569
-27.2861
-27.2861
-30.5837
-30.5837
42.0638
42.0638
0.590642
0.590642
-14.4345
-14.4345
3.21974
3.21974
-5.59039
-5.59039
-6.53221
-6.53221
0.437248
0.437248
157.947
157.947
-9.80334
-9.80334
-5.76044
-5.76044
0.38096
0.38096
-0.968227
-0.968227
-7.97093
-7.97093
1.04044
1.04044
-0.60802
-0.60802
2.12359
2.12359
-6.69619
-6.69619
2.19056
2.19056
-8.93898
-8.93898
-4.79066
-4.79066
1.41616
1.41616
-6.64555
-6.64555
-4.84949
-4.84949
-7.20309
-7.20309
-3.17543
-3.17543
13.2228
13.2228
3.42223
3.42223
1.20842
1.20842
-8.0648
-8.0648
-48.2163
-48.2163
5.66141
5.66141
-0.128554
-0.128554
15.5141
15.5141
621.861
621.861
1.33678
1.33678
1.0461
1.0461
-29.4742
-29.4742
-5.92554
-5.92554
-2.2358
-2.2358
5.19539
5.19539
-7.32271
-7.32271
680.262
680.262
-2.52729
-2.52729
-9.07093
-9.07093
-4.89549
-4.89549
9.66904
9.66904
1.27032
1.27032
-7.61256
-7.61256
-6.52424
-6.52424
-7.65519
-7.65519
-14.7864
-14.7864
-3.56416
-3.56416
-8.58729
-8.58729
-29.1687
-29.1687
6.16276
6.16276
13.9298
-6.59256
-6.59256
-6.55609
-9.46162
-9.46162
534.52
534.52
-4.80553
-4.80553
-0.364681
-0.364681
1.14979
1.14979
5.98765
5.98765
14.1916
14.1916
719.647
719.647
813.387
-1.65157
-1.65157
-9.33511
-9.33511
-9.60572
-9.60572
-5.49621
-5.49621
619.261
619.261
-6.59743
-6.59743
-4.68849
-4.68849
-1.05886
-1.05886
13.1496
13.1496
-2.13709
-2.13709
-9.53799
-9.53799
629.465
629.465
27.9388
27.9388
-7.44101
-7.44101
-6.06427
-6.06427
662.686
662.686
0.425571
0.425571
-7.55593
-7.55593
-3.74183
-3.74183
-9.4215
-9.4215
2.00626
2.00626
2.27328
2.27328
-18.9845
-18.9845
-3.50543
-3.50543
14.0114
14.0114
0.345638
0.345638
5.20539
5.20539
-8.6957
-8.6957
-2.55699
-2.55699
-51.9182
-51.9182
5.83412
5.83412
-5.37906
-5.37906
225.896
225.896
-5.04052
-5.04052
-2.07149
-2.07149
-1.76778
-1.76778
-1.2189
-1.2189
8.5697
8.5697
-4.01745
-4.01745
-8.35453
-8.35453
-4.08089
-4.08089
-8.74032
-8.74032
-5.55318
-5.55318
726.866
726.866
820.606
-1.48965
-1.48965
-2.8402
-2.8402
-3.49296
-3.49296
-1.63554
-1.63554
-3.77808
-3.77808
-2.24411
-2.24411
-8.08794
-8.08794
-8.53825
-8.53825
-3.80846
-3.80846
-1.74982
-1.74982
-8.85634
-8.85634
-1.16415
-1.16415
-0.740691
-0.740691
-1.29195
-1.29195
-1.25905
636.446
636.446
-8.8578
-8.8578
-19.9666
-19.9666
-4.7167
-4.7167
-0.929268
-0.929268
3.53529
3.53529
2.8206
2.8206
-4.06721
-4.06721
-8.94343
-8.94343
4.91027
4.91027
-4.46844
-4.46844
8.57611
8.57611
-7.15625
-7.15625
-22.6988
-22.6988
-9.2063
-9.2063
-0.495963
-0.495963
-5.38555
-5.38555
-0.532407
-0.532407
-5.43107
-5.43107
-1.47101
-1.47101
-6.0458
-6.0458
-7.55332
-7.55332
-2.85894
-2.85894
-0.0819253
-0.0819253
-1.35919
-1.35919
22.6532
22.6532
23.3087
-21.3435
-21.3435
-10.2247
-10.2247
-7.47765
-7.47765
734.413
734.413
828.153
-56.8802
-56.8802
-0.749528
-0.749528
-18.0896
-18.0896
-1.71222
-1.71222
19.7483
19.7483
-0.177882
-0.177882
-10.2136
-10.2136
-17.589
-17.589
5.39146
5.39146
0.432212
0.432212
-29.3762
-29.3762
671.877
671.877
-4.76513
-4.76513
-8.59968
-8.59968
-0.922035
-0.922035
-28.5433
-28.5433
5.28158
5.28158
0.759843
0.759843
-4.06465
-4.06465
-11.3731
-11.3731
-4.10251
-4.10251
-6.75008
-6.75008
2.9754
2.9754
3.53355
3.53355
5.64831
5.64831
8.0108
8.0108
1.81822
1.81822
2.33523
2.33523
-4.55721
-4.55721
15.8836
15.8836
-0.413019
-0.413019
15.6717
15.6717
-4.27333
-4.27333
1.71393
1.71393
-7.47103
-7.47103
-4.74603
-4.74603
-11.2714
-11.2714
-0.733601
-0.733601
-9.09683
-9.09683
-1.98699
-1.98699
14.3281
14.3281
771.467
771.467
838.255
-9.79766
-9.79766
-6.10714
-6.10714
48.056
48.056
7.64864
7.64864
-5.14752
-5.14752
683.335
683.335
-12.2448
-12.2448
0.113191
0.113191
-7.02839
-7.02839
11.4742
11.4742
-2.24913
-2.24913
-26.9559
-26.9559
1.46747
1.46747
41.9967
41.9967
-31.5913
-31.5913
-0.361635
-0.361635
3.12735
3.12735
-30.8957
-30.8957
755.869
755.869
845.648
-8.32605
-8.32605
-19.1614
-19.1614
2.90433
2.90433
-12.7305
-12.7305
2.91248
2.91248
5.30433
5.30433
-16.1172
-16.1172
1.50053
1.50053
10.4361
10.4361
-0.291928
-0.291928
7.10944
7.10944
-5.74596
-5.74596
5.03247
5.03247
-2.75711
-2.75711
4.0024
4.0024
-3.41559
-3.41559
-13.5188
-13.5188
-6.84576
-6.84576
-3.52681
-3.52681
8.93453
8.93453
-0.650894
-0.650894
-8.28485
-8.28485
32.9373
32.9373
3.21435
3.21435
-2.26599
-2.26599
0.0910572
0.0910572
2.67595
2.67595
-14.1084
-14.1084
-6.41697
-6.41697
-1.13257
-1.13257
-18.5436
-18.5436
5.13145
5.13145
-13.2791
-13.2791
5.17365
5.17365
-1.73114
-1.73114
-3.12744
-3.12744
-7.88874
-7.88874
-7.38208
-7.38208
-8.1196
-8.1196
-1.35924
-1.35924
14.5606
14.5606
5.54041
5.54041
-0.174528
-0.174528
-38.2992
-38.2992
-45.371
-45.371
-5.06943
-5.06943
-34.3743
-34.3743
7.13971
7.13971
4.16133
4.16133
5.65088
5.65088
10.3359
10.3359
63.4897
63.4897
-28.5105
-28.5105
0.481342
0.481342
0.33686
0.33686
440.343
440.343
-14.9359
-14.9359
1.91435
1.91435
250.459
250.459
-2.71882
-2.71882
-37.1118
-37.1118
-24.2921
-24.2921
-9.60108
-9.60108
5.13151
5.13151
-8.35804
-8.35804
5.32282
5.32282
0.227089
0.227089
-6.90715
-6.90715
-7.73663
-7.73663
-16.5239
-16.5239
-2.82913
-2.82913
3.89724
3.89724
-57.1947
-57.1947
4.43186
4.43186
1.04747
1.04747
-40.6366
-40.6366
-41.4129
-41.4129
5.68553
5.68553
-41.005
-41.005
-45.5294
-45.5294
1.27277
1.27277
0.929629
0.929629
-3.44188
-3.44188
-0.453975
-0.453975
-13.3233
-13.3233
6.17007
6.17007
-13.2848
-13.2848
4.59528
4.59528
-8.75813
-8.75813
35.6248
35.6248
5.17531
5.17531
0.753148
0.753148
-23.1418
-23.1418
-9.60456
-9.60456
-10.7089
-10.7089
-10.6652
5.18429
5.18429
5.48377
5.48377
-6.68416
-6.68416
-50.361
-50.361
474.435
474.435
2.84739
2.84739
1.11769
1.11769
-5.03704
-5.03704
754.646
754.646
803.016
-3.82991
-3.82991
-8.47011
-8.47011
-29.1628
-29.1628
2.719
2.719
5.34649
5.34649
-2.17099
-2.17099
5.29742
5.29742
-16.4607
-16.4607
-10.2588
-10.2588
-8.8741
-8.8741
4.49903
4.49903
-4.26659
-4.26659
-38.568
-38.568
4.91191
4.91191
-12.0688
-12.0688
-34.3633
-34.3633
0.665144
0.665144
-6.95266
-6.95266
0.49441
0.49441
5.60439
5.60439
-25.0894
-25.0894
-2.59497
-2.59497
13.1665
13.1665
5.52051
5.52051
3.84364
3.84364
-7.10303
-7.10303
-3.40645
-3.40645
2.51871
2.51871
5.62111
5.62111
-9.58973
-9.58973
4.49171
4.49171
-20.7937
-20.7937
6.82651
6.82651
-10.5132
-10.5132
5.65551
5.65551
0.306392
0.306392
5.4262
5.4262
-2.69579
-2.69579
33.4375
33.4375
-42.6482
-42.6482
-41.2369
-41.2369
-41.006
-4.01807
-4.01807
3.76541
3.76541
1.81924
1.81924
-14.1556
-14.1556
-48.2604
-48.2604
5.44263
5.44263
-3.75483
-3.75483
-8.4275
-8.4275
5.38357
5.38357
1.06998
1.06998
-13.5196
-13.5196
-46.394
-46.394
5.61621
5.61621
-52.4889
-52.4889
-1.6032
-1.6032
5.85871
5.85871
4.29769
4.29769
5.47166
5.47166
1.2146
1.2146
-18.8579
-18.8579
-29.1081
-29.1081
-8.50085
-8.50085
-12.2658
-12.2658
5.75983
5.75983
5.57016
5.57016
5.28557
5.28557
8.94399
8.94399
-10.6387
-10.6387
3.01684
3.01684
-0.940442
-0.940442
17.6006
17.6006
-19.0185
-19.0185
-48.9655
-48.9655
-56.6804
-56.6804
-3.50779
-3.50779
-11.556
-11.556
-0.796552
-0.796552
-36.7396
-36.7396
5.80276
5.80276
5.56673
5.56673
5.84602
5.84602
-59.4195
-59.4195
3.63301
3.63301
-3.73698
-3.73698
6.23893
6.23893
4.60343
4.60343
5.4816
5.4816
-8.01507
-8.01507
-34.753
-34.753
-6.76882
-6.76882
-52.3586
-52.3586
-7.1328
-7.1328
6.29175
6.29175
33.5772
33.5772
-30.18
-30.18
-50.0212
-50.0212
1.04995
1.04995
5.87256
5.87256
1.50859
1.50859
4.45106
4.45106
-43.1945
-43.1945
6.14201
6.14201
5.57461
5.57461
-21.2904
-21.2904
0.631028
0.631028
-5.43059
-5.43059
-9.7097
-9.7097
-3.26906
-3.26906
-17.7262
-17.7262
-21.736
-21.736
5.96217
5.96217
1.62161
1.62161
-12.7634
-12.7634
-57.5515
-57.5515
5.68297
5.68297
-46.8545
-46.8545
-3.59263
-3.59263
-17.3192
-17.3192
-4.65281
-4.65281
0.335254
0.335254
4.89827
4.89827
6.02157
6.02157
5.82215
5.82215
-11.4797
-11.4797
5.80059
5.80059
-21.855
-21.855
5.55691
5.55691
4.68499
4.68499
2.13615
2.13615
-35.3888
-35.3888
-11.4738
-11.4738
3.25726
3.25726
3.84758
3.84758
5.92026
5.92026
5.92763
5.92763
28.7219
28.7219
7.06235
7.06235
1.42192
1.42192
-10.7749
-10.7749
5.69286
5.69286
13.3804
13.3804
20.8307
20.8307
-49.4627
-49.4627
-8.81398
-8.81398
6.31006
6.31006
-1.20802
-1.20802
-59.2457
-59.2457
5.47534
5.47534
6.91186
6.91186
5.08309
5.08309
6.19125
6.19125
14.0065
14.0065
31.4772
31.4772
16.3317
16.3317
5.96088
5.96088
5.72126
5.72126
-3.52699
-3.52699
-3.52979
-3.52979
1.59266
1.59266
4.63876
4.63876
-2.92092
-2.92092
-6.62657
-6.62657
10.2223
10.2223
5.80868
5.80868
-8.5134
-8.5134
3.91377
3.91377
6.92507
6.92507
-9.15222
-9.15222
3.12306
3.12306
-19.7004
-19.7004
5.69969
5.69969
1.81508
1.81508
-29.85
-29.85
5.26703
5.26703
6.07373
6.07373
-57.6161
-57.6161
-14.836
-14.836
-12.0134
-12.0134
117.033
117.033
6.8832
6.8832
-38.6012
-38.6012
5.22684
5.22684
-5.84376
-5.84376
18.7623
18.7623
6.24814
6.24814
5.68479
5.68479
40.6505
40.6505
44.2863
44.2863
10.6377
10.6377
-25.3485
-25.3485
-24.8876
-24.8876
-0.722641
-0.722641
-42.1501
-42.1501
5.62312
5.62312
288.648
288.648
-42.5886
-42.5886
-11.2457
-11.2457
25.3683
25.3683
5.6426
5.6426
-26.4666
-26.4666
1.09324
1.09324
-1.66523
-1.66523
4.48892
4.48892
4.40168
4.40168
6.17114
6.17114
-53.7984
-53.7984
5.42604
5.42604
-3.66222
-3.66222
6.06335
6.06335
-54.0624
-54.0624
-4.29239
-4.29239
2.24619
2.24619
235.616
235.616
23.3931
23.3931
-17.2945
-17.2945
-4.92372
-4.92372
-6.26039
-6.26039
6.10577
6.10577
-14.7952
-14.7952
6.1004
6.1004
6.6745
6.6745
-56.5936
-56.5936
0.0570851
0.0570851
5.68807
5.68807
-61.7597
-61.7597
6.75486
6.75486
-1.1054
-1.1054
5.65251
5.65251
5.65436
5.65436
310.779
310.779
7.03476
7.03476
29.8012
29.8012
5.72328
5.72328
-13.7776
-13.7776
1.41233
1.41233
-2.38517
-2.38517
5.99913
5.99913
6.85313
6.85313
4.62945
4.62945
-49.5064
-49.5064
6.12355
6.12355
-58.0247
-58.0247
5.09267
5.09267
3.00497
3.00497
5.60251
5.60251
-4.83655
-4.83655
-5.02234
-5.02234
-5.81523
-5.81523
6.5532
6.5532
-10.17
-10.17
5.4408
5.4408
-1.03326
-1.03326
6.5323
6.5323
6.16134
6.16134
5.21409
5.21409
8.64049
8.64049
3.73946
3.73946
-9.01209
-9.01209
-12.6059
-12.6059
24.125
24.125
6.29206
6.29206
-62.0449
-62.0449
5.68593
5.68593
5.93462
5.93462
6.10681
6.10681
-3.76042
-3.76042
5.6134
5.6134
-5.07348
-5.07348
-53.0103
-53.0103
-7.40308
-7.40308
-16.5326
-16.5326
-62.0974
-62.0974
17.2579
17.2579
6.22826
6.22826
-32.9588
-32.9588
-37.0796
-37.0796
-51.8462
-51.8462
-38.6878
-38.6878
6.19772
6.19772
-15.3527
-15.3527
-21.4749
-21.4749
129.225
129.225
-24.8481
-24.8481
8.28896
8.28896
17.8867
17.8867
-15.2701
-15.2701
-6.59092
-6.59092
6.84371
6.84371
5.63107
5.63107
-44.2797
-44.2797
6.02025
6.02025
0.509266
0.509266
6.07431
6.07431
6.1631
6.1631
-5.90443
-5.90443
5.66563
5.66563
6.52334
6.52334
2.70793
2.70793
90.6454
90.6454
6.16338
6.16338
2.14825
2.14825
6.7755
6.7755
-20.6249
-20.6249
5.9153
5.9153
5.72876
5.72876
15.0484
15.0484
0.556284
0.556284
242.544
242.544
6.55755
6.55755
0.545437
0.545437
-3.2743
-3.2743
5.30369
5.30369
-47.8066
-47.8066
104.153
104.153
1.53723
1.53723
-59.6552
-59.6552
-3.22847
-3.22847
7.4104
7.4104
-63.3662
-63.3662
1.85587
1.85587
0.516452
0.516452
0.483679
288.118
288.118
3.47752
3.47752
-13.8295
-13.8295
-5.55058
-5.55058
6.5286
6.5286
29.3689
29.3689
6.15161
6.15161
-43.7764
-43.7764
6.36673
6.36673
-26.8785
-26.8785
5.46975
5.46975
-53.5886
-53.5886
5.0477
5.0477
42.0167
42.0167
-9.73262
-9.73262
-5.31716
-5.31716
409.241
409.241
-7.11883
-7.11883
72.1117
72.1117
6.06945
6.06945
6.37921
6.37921
5.93537
5.93537
-11.246
-11.246
6.19355
6.19355
2.72538
2.72538
-19.7663
-19.7663
55.1091
55.1091
30.4181
30.4181
-5.38235
-5.38235
16.9234
16.9234
189.297
189.297
498.237
498.237
-57.0294
-57.0294
9.30279
9.30279
-11.9349
-11.9349
-58.716
-58.716
-8.12669
-8.12669
6.14294
6.14294
6.19681
6.19681
6.51747
6.51747
6.10656
6.10656
9.99567
9.99567
6.38596
6.38596
-64.0193