/*--------------------------------*- C++ -*----------------------------------*\
  =========                 |
  \\      /  F ield         | OpenFOAM: The Open Source CFD Toolbox
   \\    /   O peration     | Website:  https://openfoam.org
    \\  /    A nd           | Version:  8
     \\/     M anipulation  |
\*---------------------------------------------------------------------------*/
FoamFile
{
    version     2.0;
    format      ascii;
    class       volScalarField;
    location    "0.9";
    object      p_rgh;
}
// * * * * * * * * * * * * * * * * * * * * * * * * * * * * * * * * * * * * * //

dimensions      [1 -1 -2 0 0 0 0];

internalField   nonuniform List<scalar> 
1924
(
43.0407
-0.893801
-4.89097
-5.4129
-1.43836
-6.84642
-5.12424
-5.86472
-5.31452
-3.21726
-5.49673
-5.54277
5.5905
-6.64978
-33.5504
-35.5326
5.45514
-7.44104
136.346
-9.12033
2.92642
16.7272
4.94844
-9.58484
13.8837
8.67147
8.24806
57.4266
-2.21618
12.0708
4.80988
8.89347
32.306
5.83476
3.41714
6.94099
8.52684
-1.52121
13.7078
4.38443
8.41785
4.32246
8.77886
7.75908
13.0904
-0.892371
204.029
1.14936
757.662
2.48672
33.3981
4.78739
15.2537
190.734
-0.218897
3.94235
236.128
-0.404695
181.956
3.48148
9.57082
-29.7485
9.08305
19.9561
415.89
-0.00506035
-15.653
5.50091
-1.99187
39.7349
1.70659
-31.3277
17.709
10.7858
9.87405
1.00145
-5.44113
8.2051
5.42376
9.74978
-1.51161
6.3108
9.94388
2.5381
64.0022
5.91669
117.19
-26.6355
657.726
1.97146
-10.0199
6.515
-0.672303
-1.60804
2.11664
524.371
-7.7608
-2.89061
3.95427
0.725436
-5.77758
3.40215
2.92172
5.49977
-3.26603
4.43352
-5.77751
-0.722738
5.16525
-2.32762
-2.71571
-4.27171
-1.17944
14.9233
5.45422
2.39475
-5.93558
-43.5123
7.27607
1.89346
475.2
809.341
2.40371
2.2982
-25.2835
-2.59102
-0.45315
7.22965
-5.05423
853.498
-0.334251
-6.9531
-3.00608
11.6834
4.41361
-5.51433
-3.14602
-4.1877
-11.7388
-1.51609
39.367
-25.0673
362.457
-4.91947
-7.25519
858.176
-0.606811
1.17796
5.47372
14.2735
16.0698
813.387
0.0758379
-7.14647
-7.33103
-3.23212
806.741
-3.5042
-2.40128
6.21816
14.9228
2.41292
-7.30381
816.946
77.3783
-5.30337
-3.8318
804.796
2.4702
-5.31821
-1.94061
-7.089
4.27406
5.76013
1.64486
0.820644
15.5914
1.78271
16.5936
-6.35344
-0.215946
-47.2074
7.7631
-3.08076
791.651
1.53012
-0.286687
0.76511
0.93398
10.2981
-1.97583
-5.9717
-1.32199
-6.34617
-3.04387
820.606
2.74615
1.48627
-1.20751
1.63507
126.29
4.38869
-5.84613
-5.26616
-1.93757
0.666242
-5.68244
0.874114
0.865663
0.3501
823.927
-6.01547
-16.031
-1.84085
1.70773
5.62967
6.82161
-1.6051
-5.10697
6.97889
-2.28727
10.4759
-4.91554
-18.6614
-5.35889
4.35483
-2.41331
1.93533
-0.764511
0.677362
-4.20467
-3.26625
-0.447548
1.48864
3.71492
55.3753
-17.3256
-6.5808
-5.15897
828.153
-52.8371
2.84563
-14.387
2.2996
58.2847
1.36409
-6.19242
-10.7374
7.45893
2.85205
315.064
832.406
0.0196581
-6.34926
1.35089
-24.4499
8.71412
3.86316
-1.92549
-7.65373
-1.85116
-3.49489
6.50362
5.7073
9.22989
9.87223
4.65094
4.60095
0.261104
355.39
1.48897
18.8601
-2.42477
4.44358
-3.10283
-1.81881
-7.15809
3.35395
-6.83917
1.53005
264.751
838.255
-5.60511
-1.07686
638.071
9.4107
-2.08012
839.903
-9.32937
2.86886
-3.68689
13.1399
1.00257
-22.7737
2.60451
86.223
-27.7222
4.00569
5.34962
-26.6354
845.648
-6.01674
-15.1828
7.16307
-9.61339
7.19003
10.0737
-12.218
4.14544
12.2698
1.31598
17.0093
-0.589936
13.0402
-0.011979
13.2088
-1.10127
-10.5882
-2.0578
-1.09666
10.7242
2.52232
-5.9048
34.3937
7.8635
0.365641
2.71876
5.51508
-11.7897
-3.51872
3.14581
-13.8624
7.65071
-10.3533
7.23386
1.93599
0.778978
-2.99014
-2.80655
-5.49349
1.20422
16.1464
17.5304
4.35063
-34.2862
-40.8005
-3.27233
-30.2223
16.5766
8.60202
9.75312
393.044
120.191
-24.255
2.00904
2.82123
789.91
-11.8993
4.53889
487.036
0.661454
-33.0963
-20.1529
-5.44538
8.34886
-4.29576
16.9432
9.98087
-3.38427
-2.90648
-12.9433
-0.285097
8.64423
-53.1455
9.8365
7.86574
-36.5506
-37.3218
9.69915
-36.9585
-41.5565
3.68751
3.68524
1.10714
3.87179
-9.90905
8.16226
-8.60277
10.8062
-3.90941
67.0334
10.9579
5.26274
-18.6388
-6.35051
-8.91636
11.2643
17.4743
-3.9545
-45.6055
861.865
5.13748
5.43314
-0.0580251
803.016
0.190033
-5.40563
-24.6681
8.71649
10.9547
1.22092
11.3698
-13.3557
-5.36101
-5.62019
10.8795
-1.44583
-34.4947
6.40492
-9.92118
-30.3627
11.061
-3.95606
3.02658
8.66766
-21.2391
0.226948
14.7743
10.348
7.35873
-3.00829
-0.650216
6.1886
7.4822
-6.47373
9.91636
-16.6033
17.9602
-6.86641
8.655
6.59814
12.1897
2.14997
128.575
-36.7588
-31.8084
-0.500928
5.98346
6.38951
-9.70423
-43.6462
15.551
1.30661
-5.5902
12.0048
5.50607
-9.38451
-41.7909
7.41323
-48.4348
1.02167
10.4891
13.3374
8.9942
2.88316
-14.5139
-22.836
-5.16446
-9.22589
7.62301
9.4007
14.0613
10.8906
-6.69256
13.1725
1.63051
19.5703
-15.2538
-43.7824
-52.233
0.458085
-8.36344
4.07939
-30.19
10.4315
8.77131
13.0416
-55.2441
7.36819
-1.1238
18.0002
8.2552
7.7831
-5.80988
-30.707
-3.71385
-48.192
-2.89696
13.3463
35.0676
-26.2062
-45.33
11.9901
10.0598
5.14009
9.70482
-38.9645
12.9086
16.5115
-16.9551
3.06463
-2.44732
-5.40854
1.90715
-13.2636
-17.1914
10.8626
6.35644
-9.59229
-53.4729
8.65641
-42.142
-0.776041
-13.0181
-0.433913
5.25729
6.94674
8.69026
10.5135
-7.4826
8.71577
-17.7522
16.2261
7.94295
3.66899
-28.6275
-8.17097
13.7827
13.6357
9.09077
13.1866
31.4819
11.2658
3.8261
-6.64617
9.97291
15.1148
22.1201
-45.0675
-5.87247
13.7232
3.89492
-55.1863
12.7692
14.1104
8.13735
9.03436
31.151
33.0598
18.8886
8.70298
8.7817
-0.269511
1.59692
7.07939
6.14303
-0.16793
-4.3393
12.1814
12.8559
-4.7036
7.81638
13.9796
-4.70137
5.37982
-15.0376
18.0115
5.74377
-25.804
6.78257
8.68785
-53.1346
-11.2694
-7.48327
499.057
9.78214
-34.0903
11.4415
-2.77745
20.3125
9.35753
12.9653
335.761
242.609
29.5885
-21.3718
-18.2886
1.95469
-36.0651
11.9041
494.448
-37.8964
-7.60088
26.6266
16.5185
-22.3942
6.08569
0.960623
6.06887
10.4494
9.21436
-49.376
18.4562
-1.10461
12.7105
-49.6761
-1.10743
3.8395
512.514
24.6317
-12.9685
-1.92547
-3.89912
8.91117
-11.0258
8.15126
9.38015
-52.1043
4.60502
14.8768
-57.575
13.9694
1.32789
15.5409
9.55747
527.095
13.2648
119.631
11.2343
-9.47392
6.17533
3.00749
13.268
13.2137
9.40721
-44.7745
8.86519
-53.7914
11.0792
14.0885
8.75114
0.617366
-2.88661
-2.52
12.38
-5.49447
8.5
1.52828
9.9851
13.8807
6.77759
11.8145
5.92017
-4.86478
-7.86872
25.6042
9.66615
-57.7618
13.192
13.3229
12.9515
-0.942028
10.0287
-2.39185
-48.8214
-3.36272
-12.5654
-57.9136
34.7309
18.5869
-28.6371
-31.9274
-47.3655
-31.6027
9.14276
-11.2574
-14.3904
821.705
-20.7965
14.468
19.5765
-10.9519
-4.03023
10.6344
7.56265
-39.0716
11.9793
2.94893
12.7004
8.9685
-2.21747
15.0095
12.0358
4.76614
343.563
12.2669
7.02365
12.0604
-16.6515
8.20885
10.3951
46.1946
6.06928
870.836
10.0978
4.03676
2.46308
17.1226
-43.0225
635.648
3.91817
-55.2864
-0.473415
12.9098
-59.1193
8.13699
1.89038
480.563
5.01127
-9.62035
0.265329
15.8404
31.4219
9.01575
-37.674
10.1713
-19.3962
11.7247
-49.1583
24.3194
192.918
-4.84609
-2.1261
474.455
-3.98047
129.633
8.55959
16.0507
11.0141
-6.93276
9.31361
9.95818
-15.6782
58.4575
32.3346
-2.01683
20.2758
461.407
860.173
-52.5968
11.4757
-5.44422
-54.35
-3.9076
9.07593
11.8967
9.89157
13.3635
40.4489
9.95134
-59.6443
9.94601
41.6124
6.80528
4.07804
-26.3584
8.49602
9.72384
14.9784
7.98226
12.9336
0.316238
-16.5257
-1.69481
-13.3193
4.56379
-57.9015
11.4352
-36.1087
25.3443
11.6446
7.37242
-32.7998
5.65181
9.932
-2.95418
-22.9402
614.696
12.2117
7.64565
10.1806
6.5146
10.1266
25.1534
-1.7717
-50.2992
48.6778
-58.7166
2.79577
10.2421
8.54798
-15.9413
28.6731
502.456
8.04198
36.5547
-46.283
50.3398
9.88886
7.25971
21.0592
-4.36524
-43.914
62.7955
-13.2531
-12.487
15.0757
-31.074
0.706944
12.2791
-60.1055
-2.68471
9.46895
9.66058
9.06643
9.63763
1.09177
-40.1914
-7.03936
783.666
-4.63884
459.814
9.63427
9.51086
798.282
69.0141
9.61409
8.9936
-53.0014
7.58889
-18.6371
-0.359622
46.4477
-1.22577
-59.9101
7.42985
128.384
8.65566
229.578
1.86365
-34.321
-47.761
7.24378
13.6418
58.8888
6.6046
152.155
9.77335
85.7783
10.6286
-4.91797
7.89955
217.79
-17.356
14.6814
25.1283
-2.83849
21.4819
746.381
9.99002
44.2885
8.4126
-49.2733
5.73415
12.417
9.3107
5.76855
-6.55039
-2.38445
-16.8331
9.17311
-3.04657
822.841
-50.8734
-30.226
-26.1445
-19.4485
-57.7351
42.282
-58.3536
50.0986
13.6202
8.77185
479.575
9.30017
9.02912
-36.4526
36.8593
9.19275
-40.0018
9.16824
23.5921
-16.7269
500.118
414.36
3.49341
32.7733
9.26089
9.03562
-0.800506
1.27858
-59.0985
8.88535
853.841
-12.3371
19.8417
-2.51887
-3.99686
-22.7727
9.31054
21.4332
-54.8743
9.16151
25.4647
8.96715
4.75845
-37.204
7.77013
11.1184
3.26215
-2.61313
599.301
-9.73103
458.113
436.465
7.13149
8.84355
8.25953
36.7
-58.1219
144.175
9.17713
130.912
8.16521
-23.1923
470.971
272.732
11.1555
62.5577
-46.5052
183.007
-5.31978
8.49995
-16.7398
106.376
6.57479
-47.6898
8.85353
8.73509
33.4097
-4.1223
8.74245
2.60817
8.84562
-56.1808
41.4548
10.6819
8.4107
-7.18601
-1.27077
-56.4189
10.4825
93.2135
13.5802
8.95036
3.29612
8.79628
106.871
85.6113
12.2737
15.8006
7.24716
-4.34889
21.7675
9.15706
-0.56292
20.791
-25.7306
-30.4003
70.7144
8.90266
35.2735
143.243
-41.5466
8.34697
5.31249
-57.0024
-7.08913
-22.4187
114.709
8.70538
36.553
-50.6273
6.67831
-19.5226
-15.7342
10.0891
13.0571
8.66956
8.92788
-31.8911
-48.1978
-29.3627
753.474
-2.93399
-5.17198
8.14233
9.24965
6.18955
9.60158
19.9301
658.725
124.582
-13.5208
-8.89168
438.124
357.919
21.67
-8.6595
66.0703
8.77208
979.211
-56.045
-24.5747
2.62992
-46.8145
8.52429
-9.54755
8.19043
8.08427
7.888
13.9396
-38.473
155.991
8.64309
-0.00593486
-12.4712
8.59741
-42.4744
6.81575
16.3417
13.2719
813.825
11.2954
81.6193
190.547
-6.49215
-53.8721
8.59487
-7.44112
213.583
-51.9769
68.3425
8.65984
8.38521
12.0931
8.81705
429.228
-37.2212
9.15803
8.54703
20.2548
10.0185
10.4681
928.178
909.207
15.2236
-5.53901
11.119
-49.0523
10.5155
11.8897
-25.9041
11.2512
29.3719
8.50949
11.6238
-53.6815
0.13986
9.86491
56.0815
15.3103
21.5485
17.7779
36.4431
7.86616
525.795
443.204
8.68004
-13.8692
8.09709
134.406
0.78432
475.854
488.882
-13.7782
505.589
8.54042
-24.3304
9.22154
8.37491
9.50241
1005.78
-41.7282
-20.3946
-16.4433
-1.4336
8.30577
8.94539
-6.05401
-5.44529
-30.9235
8.6651
-51.0574
10.3685
17.3744
8.3513
-14.0965
-12.6885
508.886
10.3983
-37.2394
538.46
495.783
1053.91
11.5354
11.4357
8.34345
21.602
35.6591
1102.37
8.94555
-10.5646
-49.0235
-19.3141
-48.4713
-28.8475
267.635
10.0106
125.369
8.54245
11.0812
435.896
10.0838
8.3224
709.455
381.183
6.39263
-3.01474
21.7213
-32.2255
18.2254
152.07
280.902
-18.9502
-13.576
9.99445
140.844
8.67746
-1.45286
9.49154
974.218
-43.3044
18.6366
11.1123
8.56164
487.047
13.7976
7.01414
8.06832
6.35924
8.50491
7.46487
135.732
63.8235
-22.7362
855.118
8.17936
8.83306
1053.15
12.2884
-48.1122
8.78009
13.1539
11.7776
9.96859
8.13964
838.017
1.33574
-13.5823
10.1681
-39.0273
364.714
-39.3733
-0.827125
661.006
-31.6759
13.9837
-15.9848
302.908
5.52428
12.674
8.19763
11.1751
447.212
-46.3508
395.187
1040.06
459.024
1.16924
-14.3632
12.7885
11.6833
-21.098
-14.6895
-3.67628
-23.0151
7.90885
11.8915
9.8791
-37.8038
-2.19255
11.4659
618.904
620.424
-42.3542
9.5348
6.97853
9.03249
94.71
9.63823
10.1952
-0.161591
11.0059
13.8836
127.163
-14.4184
591.668
852.751
7.45914
7.4809
33.7417
426.172
814.615
11.9295
973.422
335.3
10.3138
10.948
-22.759
7.75195
-13.0469
442.844
1091.69
-11.8008
8.43688
-39.9446
8.15286
17.1374
448.008
566.256
17.1476
0.753068
591.003
8.84447
2.50308
6.9051
-32.4999
9.01582
7.98558
11.7106
11.0269
14.8888
840.262
13.8957
1010.35
-9.28866
-29.51
12.2009
8.5527
25.7799
6.31419
10.4173
846.067
-40.3516
19.3607
-11.1156
17.3229
14.2361
8.03488
-18.0531
3.27476
34.4429
637.822
12.7719
-11.6614
7.0736
1023.51
15.5192
10.2634
510.505
-0.982746
22.4689
22.2897
9.6623
5.92199
34.2845
9.81295
-13.283
1078.92
14.3828
-41.8977
171.332
6.12288
12.3582
683.908
-10.9781
478.029
-38.3178
-20.235
15.4655
864.96
15.5156
25.3415
441.065
7.39574
23.9383
130.831
17.8869
8.15061
-11.183
-26.2682
610.239
12.8797
28.8688
-23.0884
20.7526
1076.15
818.571
704.785
840.793
31.9202
741.073
9.32723
-30.9423
8.0501
20.928
-28.2236
8.2594
337.355
13.8408
44.3344
50.1003
-37.2778
-20.4564
831.597
8.82155
7.7008
973.463
9.3154
303.356
1025.38
362.093
15.0152
690.108
827.156
440.838
155.694
-30.8001
845.924
24.8691
7.90761
152.534
407.167
28.5258
516.455
-12.2218
1061
98.9231
9.12356
867.43
31.2563
26.3171
853.363
-2.16989
74.1047
13.8594
664.804
14.8316
8.17098
9.18252
7.93703
-10.6682
9.7231
6.69319
6.99335
272.085
-2.48594
169.036
20.1675
-7.10801
11.3021
700.371
1.75116
543.022
835.516
340.567
-27.989
-16.6748
7.68428
8.01251
20.4323
997.461
25.8179
10.316
5.86939
-6.62775
-19.6283
953.658
45.8718
-11.3609
26.2836
-14.6193
-20.7461
9.37014
65.9012
15.0234
8.67708
732.409
16.1611
-31.2989
-11.3646
15.5351
-7.33992
-25.3059
472.104
-7.46644
8.20101
9.77553
1163.61
10.4368
8.98147
3.32378
9.14736
145.736
15.3979
-10.4174
8.40996
-30.1171
7.29372
-13.3937
815.672
-26.9076
815.103
-30.9798
1006.5
18.362
851.711
38.6698
34.1044
23.7483
9.5402
835.677
16.6166
20.8956
819.442
739.652
644.105
672.352
9.2154
-9.15322
-18.2974
800.838
-0.443433
-0.898462
1004.36
10.6932
855.157
8.24573
10.8402
21.3933
14.8458
8.19236
888.044
-10.651
428.113
8.82339
9.05613
-5.65705
9.17
790.33
303.956
-14.2978
196.243
349.183
7.91372
302.415
9.23674
-16.0545
406.477
11.7215
37.7279
499.585
9.35085
1.10474
918.061
493.191
47.188
9.45205
6.96623
8.9429
-15.543
7.88665
15.2789
-13.5964
358.59
1041.16
1037.03
358.025
13.3794
19.87
8.28017
6.77771
10.6743
822.792
27.8717
9.71424
9.62008
18.418
982.861
904.717
769.917
466.832
-1.71548
6.86735
721.809
-0.686443
10.8011
9.47592
7.10926
9.67854
261.522
42.2669
21.0311
6.6044
1160.92
-18.6773
415.552
10.787
8.68429
843.185
45.4591
42.466
23.3231
960.924
-7.27764
-19.7454
10.027
8.57561
-19.2816
7.41626
13.1394
-19.7907
10.1917
1144.92
-8.24508
9.3626
12.8787
957.851
-1.85272
519.068
-19.4096
873.666
161.087
811.701
7.0322
10.0746
11.2347
6.24366
42.5731
5.54338
831.054
807.514
-7.82169
9.9324
-10.5133
-9.60909
9.87386
-1.18283
8.02572
-5.34571
13.6235
-17.756
11.1948
-11.504
989.571
11.1746
27.2977
10.2677
-9.65558
8.5043
-9.29901
6.77296
-11.573
806.635
-8.74922
527.844
944.214
10.2827
4.09972
818.469
-0.882769
7.51629
6.17681
38.8631
10.1833
33.6135
22.9784
-11.3049
-8.45849
23.0137
38.1694
9.71194
14.1938
-17.9247
9.45201
785.581
10.5103
-11.5989
11.0599
17.9924
9.26727
1.63588
946.857
932.556
-2.37933
801.573
23.4833
10.6353
15.8082
7.31181
9.25558
5.94781
-1.22191
15.7031
-2.82171
10.1345
8.6502
10.5078
16.3184
811.855
819.456
10.1365
2.49899
18.1608
875.472
3.27984
58.193
23.2639
5.47737
-4.69529
93.8728
9.02255
450.638
533.656
10.1922
10.5363
10.1425
9.75381
24.2715
34.6551
9.35833
47.8842
35.658
120.969
10.4687
915.476
10.2767
15.0626
9.85166
810.519
807.863
-2.2475
10.6776
22.2738
-4.0679
-2.53839
4.69506
16.4399
29.8226
22.9308
9.39815
25.9162
17.7889
148.932
45.2601
10.1784
7.41581
13.1307
94.0655
24.4947
42.3802
54.6417
23.5587
22.8132
16.1404
12.6031
56.0657
10.7052
-5.86946
121.104
173.84
11.6265
529.713
9.04187
280.816
2.98946
855.47
11.1428
149.438
12.1655
23.8973
30.6533
55.4368
0.951574
-2.70552
4.76793
50.5032
63.5329
52.8129
180.365
31.2959
17.8081
27.5324
22.9035
64.3062
233.05
223.402
115.172
28.2636
31.919
11.1186
0.993236
27.4442
11.0037
78.127
79.5197
11.8977
-1.51907
32.4885
34.2426
62.2379
36.5861
33.4967
809.39
811.437
38.1143
811.889
67.3937
812.124
337.715
340.987
62.1902
329.58
201.723
572.406
357.367
353.232
554.902
533.612
17.8149
21.2916
-3.87446
29.8129
27.5868
16.4653
13.7307
72.5555
364.841
361.992
337.277
280.309
365.578
312.217
9.28429
37.6002
6.24374
25.8224
10.1952
16.5659
867.8
879.728
855.268
302.664
901.189
904.085
939.864
7.10521
570.249
966.004
913.241
791.897
4.3094
892.008
467.463
902.34
886.56
7.89169
789.915
842.281
12.2646
871.798
292.667
3.35857
870.48
478.783
479.374
833.366
811.787
836.394
802.909
826.728
819.991
14.911
887.363
880.64
1100.93
1104.02
1105.53
878.937
2.30562
7.30638
1091.39
666.618
660.689
879.118
862.773
854.506
328.742
4.4818
1069.04
799.492
799.314
1003.59
837.685
808.804
842.848
824.804
799.03
816.905
802.464
801.335
194.406
2.23556
1106.29
3.32931
790.442
1103.92
661.524
1098.84
93.1932
1096.9
3.07671
1091.63
105.109
48.2673
1104.95
88.304
1074.15
727.423
1011.51
-5.90422
593.813
6.49906
471.62
1070.31
-9.69101
1066.02
703.253
1005.62
45.2816
11.0757
-11.8481
773.766
738.49
802.503
13.3613
-4.57719
733.065
-7.68532
6.14081
774.486
6.39366
-8.12453
736.089
6.96768
611.446
874.103
1103.52
774.241
6.71109
801.337
801.06
-9.84286
)
;

boundaryField
{
    patch0
    {
        type            fixedFluxPressure;
        gradient        uniform 0;
        value           nonuniform List<scalar> 
4010
(
43.0407
43.0407
-0.893801
-0.893801
-4.89097
-4.89097
-5.4129
-5.4129
-1.43836
-1.43836
-6.84642
-6.84642
-5.12424
-5.12424
-5.86472
-5.86472
-5.31452
-5.31452
-3.21726
-3.21726
-5.49673
-5.49673
-5.54277
-5.54277
5.5905
5.5905
-6.64978
-6.64978
-33.5504
-33.5504
-35.5326
-35.5326
5.45514
5.45514
-7.44104
-7.44104
136.346
136.346
-9.12033
-9.12033
2.92642
2.92642
16.7272
16.7272
4.94844
4.94844
-9.58484
-9.58484
13.8837
13.8837
8.67147
8.67147
8.24806
8.24806
57.4266
57.4266
-2.21618
-2.21618
12.0708
12.0708
4.80988
4.80988
8.89347
8.89347
32.306
32.306
5.83476
5.83476
3.41714
3.41714
6.94099
6.94099
8.52684
8.52684
-1.52121
-1.52121
13.7078
13.7078
4.38443
4.38443
8.41785
8.41785
4.32246
4.32246
8.77886
8.77886
7.75908
7.75908
13.0904
13.0904
-0.892371
-0.892371
204.029
204.029
1.14936
1.14936
757.662
757.662
2.48672
2.48672
33.3981
33.3981
4.78739
4.78739
15.2537
15.2537
190.734
190.734
-0.218897
-0.218897
3.94235
3.94235
236.128
236.128
-0.404695
-0.404695
181.956
181.956
3.48148
3.48148
9.57082
9.57082
-29.7485
-29.7485
9.08305
9.08305
19.9561
19.9561
415.89
415.89
-0.00506035
-0.00506035
-15.653
-15.653
5.50091
5.50091
-1.99187
-1.99187
39.7349
39.7349
1.70659
1.70659
-31.3277
-31.3277
17.709
17.709
10.7858
10.7858
9.87405
9.87405
1.00145
1.00145
-5.44113
-5.44113
8.2051
8.2051
5.42376
5.42376
9.74978
9.74978
-1.51161
-1.51161
6.3108
6.3108
9.94388
9.94388
2.5381
2.5381
64.0022
64.0022
5.91669
5.91669
117.19
117.19
-26.6355
-26.6355
657.726
657.726
1.97146
1.97146
-10.0199
-10.0199
6.515
6.515
-0.672303
-0.672303
-1.60804
-1.60804
2.11664
2.11664
524.371
524.371
-7.7608
-7.7608
-2.89061
-2.89061
3.95427
3.95427
0.725436
0.725436
-5.77758
-5.77758
3.40215
3.40215
2.92172
2.92172
5.49977
5.49977
-3.26603
-3.26603
4.43352
4.43352
-5.77751
-5.77751
-0.722738
-0.722738
5.16525
5.16525
-2.32762
-2.32762
-2.71571
-2.71571
-4.27171
-4.27171
-1.17944
-1.17944
14.9233
14.9233
5.45422
5.45422
2.39475
2.39475
-5.93558
-5.93558
-43.5123
-43.5123
7.27607
7.27607
1.89346
1.89346
475.2
475.2
809.341
809.341
2.40371
2.40371
2.2982
2.2982
-25.2835
-25.2835
-2.59102
-2.59102
-0.45315
-0.45315
7.22965
7.22965
-5.05423
-5.05423
853.498
853.498
-0.334251
-0.334251
-6.9531
-6.9531
-3.00608
-3.00608
11.6834
11.6834
4.41361
4.41361
-5.51433
-5.51433
-3.14602
-3.14602
-4.1877
-4.1877
-11.7388
-11.7388
-1.51609
-1.51609
39.367
39.367
-25.0673
-25.0673
362.457
362.457
362.457
-4.91947
-4.91947
-4.91947
-7.25519
-7.25519
858.176
858.176
-0.606811
-0.606811
1.17796
1.17796
5.47372
5.47372
14.2735
14.2735
16.0698
16.0698
813.387
813.387
813.387
0.0758379
0.0758379
-7.14647
-7.14647
-7.33103
-7.33103
-3.23212
-3.23212
806.741
806.741
-3.5042
-3.5042
-2.40128
-2.40128
6.21816
6.21816
14.9228
14.9228
2.41292
2.41292
-7.30381
-7.30381
816.946
816.946
77.3783
77.3783
-5.30337
-5.30337
-3.8318
-3.8318
804.796
804.796
2.4702
2.4702
-5.31821
-5.31821
-1.94061
-1.94061
-7.089
-7.089
4.27406
4.27406
5.76013
5.76013
1.64486
1.64486
0.820644
0.820644
15.5914
15.5914
1.78271
1.78271
16.5936
16.5936
-6.35344
-6.35344
-0.215946
-0.215946
-47.2074
-47.2074
7.7631
7.7631
-3.08076
-3.08076
791.651
791.651
1.53012
1.53012
-0.286687
-0.286687
0.76511
0.76511
0.93398
0.93398
10.2981
10.2981
-1.97583
-1.97583
-5.9717
-5.9717
-1.32199
-1.32199
-6.34617
-6.34617
-3.04387
-3.04387
820.606
820.606
820.606
2.74615
2.74615
1.48627
1.48627
-1.20751
-1.20751
1.63507
1.63507
126.29
126.29
4.38869
4.38869
-5.84613
-5.84613
-5.26616
-5.26616
-1.93757
-1.93757
0.666242
0.666242
-5.68244
-5.68244
0.874114
0.874114
0.865663
0.865663
0.3501
0.3501
0.3501
823.927
823.927
-6.01547
-6.01547
-16.031
-16.031
-1.84085
-1.84085
1.70773
1.70773
5.62967
5.62967
6.82161
6.82161
-1.6051
-1.6051
-5.10697
-5.10697
6.97889
6.97889
-2.28727
-2.28727
10.4759
10.4759
-4.91554
-4.91554
-18.6614
-18.6614
-5.35889
-5.35889
4.35483
4.35483
-2.41331
-2.41331
1.93533
1.93533
-0.764511
-0.764511
0.677362
0.677362
-4.20467
-4.20467
-3.26625
-3.26625
-0.447548
-0.447548
1.48864
1.48864
3.71492
3.71492
55.3753
55.3753
55.3753
-17.3256
-17.3256
-6.5808
-6.5808
-5.15897
-5.15897
828.153
828.153
828.153
-52.8371
-52.8371
2.84563
2.84563
-14.387
-14.387
2.2996
2.2996
58.2847
58.2847
1.36409
1.36409
-6.19242
-6.19242
-10.7374
-10.7374
7.45893
7.45893
2.85205
2.85205
315.064
315.064
832.406
832.406
0.0196581
0.0196581
-6.34926
-6.34926
1.35089
1.35089
-24.4499
-24.4499
8.71412
8.71412
3.86316
3.86316
-1.92549
-1.92549
-7.65373
-7.65373
-1.85116
-1.85116
-3.49489
-3.49489
6.50362
6.50362
5.7073
5.7073
9.22989
9.22989
9.87223
9.87223
4.65094
4.65094
4.60095
4.60095
0.261104
0.261104
355.39
355.39
1.48897
1.48897
18.8601
18.8601
-2.42477
-2.42477
4.44358
4.44358
-3.10283
-3.10283
-1.81881
-1.81881
-7.15809
-7.15809
3.35395
3.35395
-6.83917
-6.83917
1.53005
1.53005
264.751
264.751
838.255
838.255
838.255
-5.60511
-5.60511
-1.07686
-1.07686
638.071
638.071
9.4107
9.4107
-2.08012
-2.08012
839.903
839.903
-9.32937
-9.32937
2.86886
2.86886
-3.68689
-3.68689
13.1399
13.1399
1.00257
1.00257
-22.7737
-22.7737
2.60451
2.60451
86.223
86.223
-27.7222
-27.7222
4.00569
4.00569
5.34962
5.34962
-26.6354
-26.6354
845.648
845.648
845.648
-6.01674
-6.01674
-15.1828
-15.1828
7.16307
7.16307
-9.61339
-9.61339
7.19003
7.19003
10.0737
10.0737
-12.218
-12.218
4.14544
4.14544
12.2698
12.2698
1.31598
1.31598
17.0093
17.0093
-0.589936
-0.589936
13.0402
13.0402
-0.011979
-0.011979
13.2088
13.2088
-1.10127
-1.10127
-10.5882
-10.5882
-2.0578
-2.0578
-1.09666
-1.09666
10.7242
10.7242
2.52232
2.52232
-5.9048
-5.9048
34.3937
34.3937
7.8635
7.8635
0.365641
0.365641
2.71876
2.71876
5.51508
5.51508
-11.7897
-11.7897
-3.51872
-3.51872
3.14581
3.14581
-13.8624
-13.8624
7.65071
7.65071
-10.3533
-10.3533
7.23386
7.23386
1.93599
1.93599
0.778978
0.778978
-2.99014
-2.99014
-2.80655
-2.80655
-5.49349
-5.49349
1.20422
1.20422
16.1464
16.1464
17.5304
17.5304
4.35063
4.35063
-34.2862
-34.2862
-40.8005
-40.8005
-3.27233
-3.27233
-30.2223
-30.2223
16.5766
16.5766
8.60202
8.60202
9.75312
9.75312
393.044
393.044
120.191
120.191
-24.255
-24.255
2.00904
2.00904
2.82123
2.82123
789.91
789.91
-11.8993
-11.8993
4.53889
4.53889
487.036
487.036
0.661454
0.661454
-33.0963
-33.0963
-20.1529
-20.1529
-5.44538
-5.44538
8.34886
8.34886
-4.29576
-4.29576
16.9432
16.9432
9.98087
9.98087
-3.38427
-3.38427
-2.90648
-2.90648
-12.9433
-12.9433
-0.285097
-0.285097
8.64423
8.64423
-53.1455
-53.1455
9.8365
9.8365
7.86574
7.86574
-36.5506
-36.5506
-37.3218
-37.3218
9.69915
9.69915
-36.9585
-36.9585
-41.5565
-41.5565
3.68751
3.68751
3.68524
3.68524
1.10714
1.10714
3.87179
3.87179
-9.90905
-9.90905
8.16226
8.16226
-8.60277
-8.60277
10.8062
10.8062
-3.90941
-3.90941
67.0334
67.0334
10.9579
10.9579
5.26274
5.26274
-18.6388
-18.6388
-6.35051
-6.35051
-8.91636
-8.91636
-8.91636
11.2643
11.2643
17.4743
17.4743
-3.9545
-3.9545
-45.6055
-45.6055
861.865
861.865
5.13748
5.13748
5.43314
5.43314
-0.0580251
-0.0580251
803.016
803.016
803.016
0.190033
0.190033
-5.40563
-5.40563
-24.6681
-24.6681
8.71649
8.71649
10.9547
10.9547
1.22092
1.22092
11.3698
11.3698
-13.3557
-13.3557
-5.36101
-5.36101
-5.62019
-5.62019
10.8795
10.8795
-1.44583
-1.44583
-34.4947
-34.4947
6.40492
6.40492
-9.92118
-9.92118
-30.3627
-30.3627
11.061
11.061
-3.95606
-3.95606
3.02658
3.02658
8.66766
8.66766
-21.2391
-21.2391
0.226948
0.226948
14.7743
14.7743
10.348
10.348
7.35873
7.35873
-3.00829
-3.00829
-0.650216
-0.650216
6.1886
6.1886
7.4822
7.4822
-6.47373
-6.47373
9.91636
9.91636
-16.6033
-16.6033
17.9602
17.9602
-6.86641
-6.86641
8.655
8.655
6.59814
6.59814
12.1897
12.1897
2.14997
2.14997
128.575
128.575
-36.7588
-36.7588
-31.8084
-31.8084
-31.8084
-0.500928
-0.500928
5.98346
5.98346
6.38951
6.38951
-9.70423
-9.70423
-43.6462
-43.6462
15.551
15.551
1.30661
1.30661
-5.5902
-5.5902
12.0048
12.0048
5.50607
5.50607
-9.38451
-9.38451
-41.7909
-41.7909
7.41323
7.41323
-48.4348
-48.4348
1.02167
1.02167
10.4891
10.4891
13.3374
13.3374
8.9942
8.9942
2.88316
2.88316
-14.5139
-14.5139
-22.836
-22.836
-5.16446
-5.16446
-9.22589
-9.22589
7.62301
7.62301
9.4007
9.4007
14.0613
14.0613
10.8906
10.8906
-6.69256
-6.69256
13.1725
13.1725
1.63051
1.63051
19.5703
19.5703
-15.2538
-15.2538
-43.7824
-43.7824
-52.233
-52.233
0.458085
0.458085
-8.36344
-8.36344
4.07939
4.07939
-30.19
-30.19
10.4315
10.4315
8.77131
8.77131
13.0416
13.0416
-55.2441
-55.2441
7.36819
7.36819
-1.1238
-1.1238
18.0002
18.0002
8.2552
8.2552
7.7831
7.7831
-5.80988
-5.80988
-30.707
-30.707
-3.71385
-3.71385
-48.192
-48.192
-2.89696
-2.89696
13.3463
13.3463
35.0676
35.0676
-26.2062
-26.2062
-45.33
-45.33
11.9901
11.9901
10.0598
10.0598
5.14009
5.14009
9.70482
9.70482
-38.9645
-38.9645
12.9086
12.9086
16.5115
16.5115
-16.9551
-16.9551
3.06463
3.06463
-2.44732
-2.44732
-5.40854
-5.40854
1.90715
1.90715
-13.2636
-13.2636
-17.1914
-17.1914
10.8626
10.8626
6.35644
6.35644
-9.59229
-9.59229
-53.4729
-53.4729
8.65641
8.65641
-42.142
-42.142
-0.776041
-0.776041
-13.0181
-13.0181
-0.433913
-0.433913
5.25729
5.25729
6.94674
6.94674
8.69026
8.69026
10.5135
10.5135
-7.4826
-7.4826
8.71577
8.71577
-17.7522
-17.7522
16.2261
16.2261
7.94295
7.94295
3.66899
3.66899
-28.6275
-28.6275
-8.17097
-8.17097
13.7827
13.7827
13.6357
13.6357
9.09077
9.09077
13.1866
13.1866
31.4819
31.4819
11.2658
11.2658
3.8261
3.8261
-6.64617
-6.64617
9.97291
9.97291
15.1148
15.1148
22.1201
22.1201
-45.0675
-45.0675
-5.87247
-5.87247
13.7232
13.7232
3.89492
3.89492
-55.1863
-55.1863
12.7692
12.7692
14.1104
14.1104
8.13735
8.13735
9.03436
9.03436
31.151
31.151
33.0598
33.0598
18.8886
18.8886
8.70298
8.70298
8.7817
8.7817
-0.269511
-0.269511
1.59692
1.59692
7.07939
7.07939
6.14303
6.14303
-0.16793
-0.16793
-4.3393
-4.3393
12.1814
12.1814
12.8559
12.8559
-4.7036
-4.7036
7.81638
7.81638
13.9796
13.9796
-4.70137
-4.70137
5.37982
5.37982
-15.0376
-15.0376
18.0115
18.0115
5.74377
5.74377
-25.804
-25.804
6.78257
6.78257
8.68785
8.68785
-53.1346
-53.1346
-11.2694
-11.2694
-7.48327
-7.48327
499.057
499.057
9.78214
9.78214
-34.0903
-34.0903
11.4415
11.4415
-2.77745
-2.77745
20.3125
20.3125
9.35753
9.35753
12.9653
12.9653
335.761
335.761
242.609
242.609
29.5885
29.5885
-21.3718
-21.3718
-18.2886
-18.2886
1.95469
1.95469
-36.0651
-36.0651
11.9041
11.9041
494.448
494.448
-37.8964
-37.8964
-7.60088
-7.60088
26.6266
26.6266
16.5185
16.5185
-22.3942
-22.3942
6.08569
6.08569
0.960623
0.960623
6.06887
6.06887
10.4494
10.4494
9.21436
9.21436
-49.376
-49.376
18.4562
18.4562
-1.10461
-1.10461
12.7105
12.7105
-49.6761
-49.6761
-1.10743
-1.10743
3.8395
3.8395
512.514
512.514
24.6317
24.6317
-12.9685
-12.9685
-1.92547
-1.92547
-3.89912
-3.89912
8.91117
8.91117
-11.0258
-11.0258
8.15126
8.15126
9.38015
9.38015
-52.1043
-52.1043
4.60502
4.60502
14.8768
14.8768
-57.575
-57.575
13.9694
13.9694
1.32789
1.32789
15.5409
15.5409
9.55747
9.55747
527.095
527.095
13.2648
13.2648
119.631
119.631
11.2343
11.2343
-9.47392
-9.47392
6.17533
6.17533
3.00749
3.00749
13.268
13.268
13.2137
13.2137
9.40721
9.40721
-44.7745
-44.7745
8.86519
8.86519
-53.7914
-53.7914
11.0792
11.0792
14.0885
14.0885
8.75114
8.75114
0.617366
0.617366
-2.88661
-2.88661
-2.52
-2.52
12.38
12.38
-5.49447
-5.49447
8.5
8.5
1.52828
1.52828
9.9851
9.9851
13.8807
13.8807
6.77759
6.77759
11.8145
11.8145
5.92017
5.92017
-4.86478
-4.86478
-7.86872
-7.86872
25.6042
25.6042
9.66615
9.66615
-57.7618
-57.7618
13.192
13.192
13.3229
13.3229
12.9515
12.9515
-0.942028
-0.942028
10.0287
10.0287
-2.39185
-2.39185
-48.8214
-48.8214
-3.36272
-3.36272
-12.5654
-12.5654
-57.9136
-57.9136
34.7309
34.7309
18.5869
18.5869
-28.6371
-28.6371
-31.9274
-31.9274
-47.3655
-47.3655
-31.6027
-31.6027
9.14276
9.14276
-11.2574
-11.2574
-14.3904
-14.3904
821.705
821.705
-20.7965
-20.7965
14.468
14.468
19.5765
19.5765
-10.9519
-10.9519
-4.03023
-4.03023
10.6344
10.6344
7.56265
7.56265
-39.0716
-39.0716
11.9793
11.9793
2.94893
2.94893
12.7004
12.7004
8.9685
8.9685
-2.21747
-2.21747
15.0095
15.0095
12.0358
12.0358
4.76614
4.76614
343.563
343.563
12.2669
12.2669
7.02365
7.02365
12.0604
12.0604
-16.6515
-16.6515
8.20885
8.20885
10.3951
10.3951
46.1946
46.1946
6.06928
6.06928
870.836
870.836
10.0978
10.0978
4.03676
4.03676
2.46308
2.46308
17.1226
17.1226
-43.0225
-43.0225
635.648
635.648
3.91817
3.91817
-55.2864
-55.2864
-0.473415
-0.473415
12.9098
12.9098
-59.1193
-59.1193
8.13699
8.13699
1.89038
1.89038
1.89038
480.563
480.563
5.01127
5.01127
-9.62035
-9.62035
0.265329
0.265329
15.8404
15.8404
31.4219
31.4219
9.01575
9.01575
-37.674
-37.674
10.1713
10.1713
-19.3962
-19.3962
11.7247
11.7247
-49.1583
-49.1583
24.3194
24.3194
192.918
192.918
-4.84609
-4.84609
-2.1261
-2.1261
474.455
474.455
-3.98047
-3.98047
129.633
129.633
8.55959
8.55959
16.0507
16.0507
11.0141
11.0141
-6.93276
-6.93276
9.31361
9.31361
9.95818
9.95818
-15.6782
-15.6782
58.4575
58.4575
32.3346
32.3346
-2.01683
-2.01683
20.2758
20.2758
461.407
461.407
860.173
860.173
-52.5968
-52.5968
11.4757
11.4757
-5.44422
-5.44422
-54.35
-54.35
-3.9076
-3.9076
9.07593
9.07593
11.8967
11.8967
9.89157
9.89157
13.3635
13.3635
40.4489
40.4489
9.95134
9.95134
-59.6443
-59.6443
9.94601
9.94601
41.6124
41.6124
6.80528
6.80528
4.07804
4.07804
-26.3584
-26.3584
8.49602
8.49602
9.72384
9.72384
14.9784
14.9784
7.98226
7.98226
12.9336
12.9336
0.316238
0.316238
-16.5257
-16.5257
-1.69481
-1.69481
-13.3193
-13.3193
4.56379
4.56379
-57.9015
-57.9015
11.4352
11.4352
-36.1087
-36.1087
25.3443
25.3443
11.6446
11.6446
7.37242
7.37242
-32.7998
-32.7998
5.65181