/*--------------------------------*- C++ -*----------------------------------*\
  =========                 |
  \\      /  F ield         | OpenFOAM: The Open Source CFD Toolbox
   \\    /   O peration     | Website:  https://openfoam.org
    \\  /    A nd           | Version:  8
     \\/     M anipulation  |
\*---------------------------------------------------------------------------*/
FoamFile
{
    version     2.0;
    format      ascii;
    class       surfaceScalarField;
    location    "0.9";
    object      phi;
}
// * * * * * * * * * * * * * * * * * * * * * * * * * * * * * * * * * * * * * //

dimensions      [0 3 -1 0 0 0 0];

internalField   nonuniform List<scalar> 
2805
(
5.30953e-05
0.000286724
-0.00033982
9.92339e-05
-4.6139e-05
0.000333408
-0.00384405
0.00351065
0.00702908
-0.00669567
0.00093393
-0.000834696
-0.00011882
0.0071479
0.0102201
-0.0103389
-9.94686e-05
0.0103195
0.00841522
-0.00851469
-0.003344
-0.000500054
-0.000204446
0.00861966
0.00626021
-0.00646465
-0.00236649
0.00248658
-0.000120094
-0.000141816
0.00640202
0.0151035
-0.00542715
-0.0096764
0.00989037
0.00521318
-0.00210329
-0.000263202
0.00723607
-0.00737789
0.000238718
4.80058e-05
-0.00240995
0.00964602
-0.0011416
0.00110771
3.38857e-05
-0.00258489
0.00317825
-0.000593358
0.000825011
-0.00173121
0.000906196
0.00441557
-0.00682552
-0.0018127
-0.000772193
-0.00290413
-0.00293022
0.00583435
0.00444372
-0.00734785
0.000772906
-0.0010006
0.000227692
0.00202273
-0.00160429
-0.000418435
-0.00672744
0.00657702
0.000150415
0.00150523
-0.000680221
-0.000868897
-0.000943805
0.000585403
-0.000313476
-0.000271927
-0.00206715
-3.61344e-05
0.000207562
0.000565344
-0.000441312
-0.0012899
0.00113253
-0.00200142
0.000228257
0.00179447
-0.0031513
-0.00357614
-0.000561922
0.00442005
-0.00328753
-0.000898033
-0.000243563
0.00148983
-0.000327008
0.0012332
0.00670651
-0.00251473
-0.00419177
0.00268852
-0.00225758
-0.000430934
-0.000185244
0.000252881
-6.7637e-05
-0.00520817
0.0133837
-0.00817556
-0.000302304
-4.24617e-05
0.000344766
0.000204519
0.000384751
-0.00058927
0.000306195
-0.00120626
0.000900061
0.00158855
0.00240963
0.000768627
0.00114843
-0.00084224
0.00315578
-0.000706276
-0.0024495
-0.00313644
5.34743e-05
0.00149833
0.00230608
-0.000807743
-0.0105876
0.00584631
0.00474131
0.00095886
-0.00128587
0.0178019
-0.00791154
0.000230503
0.000728357
-0.00067877
-0.00652384
0.00720261
3.35921e-05
0.00111484
0.00816094
0.00522279
-0.0115001
-0.00646087
0.0179609
-0.00132958
0.000888265
0.00108422
-0.000316142
-0.000890114
-0.00215946
0.000901511
0.00125795
0.0106161
0.00718584
-0.00383007
0.00138835
0.00518867
0.0045245
-0.00313615
-0.00119226
-0.000801138
0.0019934
0.0168876
-0.00872668
0.00122754
0.00329696
0.000767519
-0.00894308
-8.56388e-05
0.00788888
-0.0048029
-0.00308598
0.00834969
-0.00390597
0.000285084
-0.00455837
0.00427328
6.43739e-05
0.00104334
0.000245583
-0.000444178
-0.000885399
0.00130548
0.00764978
-0.0130769
-9.77849e-05
-0.00172071
-0.000438756
0.00306991
-0.01457
0.00444682
0.00390287
0.000898198
0.000137113
0.0010882
-0.00122531
-0.002277
0.000556294
0.000732247
-0.000698655
0.0101019
0.00678573
0.00353718
0.0043517
-0.00992696
-0.000660664
-0.00275284
0.00156059
8.52073e-05
0.00273094
-0.00281615
-0.00221263
-0.00456144
-0.00536552
0.00785583
-0.00340901
-0.00115576
0.00129287
-0.00183747
-0.00236162
0.00419909
-4.89568e-05
-0.00195586
0.00200481
7.97191e-05
-0.00123548
0.00994931
-0.004103
0.00198639
0.000490789
0.00961109
-0.000665837
0.00175006
0.00116219
0.00781493
-6.36092e-05
-0.00775132
0.00791496
-0.00714744
0.000807937
0.0002354
0.00359585
-0.00779949
0.0130127
-0.000108106
0.000142161
-3.40549e-05
-0.000811717
-0.000225197
0.000470781
-0.000290091
0.000295654
-5.56276e-06
0.000418637
0.000369181
-0.0180967
0.0116358
-0.00079259
0.00229146
-0.00149887
-0.00213936
0.00133822
0.00362917
-0.00240163
0.00132056
-0.000120835
0.00019882
-7.79857e-05
0.00733146
-0.00684067
0.00268199
-0.00031073
-0.00267026
0.00298099
0.00810002
-0.000624077
0.00245809
-0.00116522
0.000205797
0.00158867
0.00901366
-0.00459809
0.00172753
0.00652827
-0.00748062
-0.000284668
0.000284668
0.000277169
-0.000277169
-0.00259146
0.00618732
-0.000119081
-1.7538e-06
-0.00071287
-0.00185133
0.00424931
0.0057
-0.00117948
0.00107137
-0.00606171
0.00150334
-0.000290091
-0.00108227
-0.00105708
-0.00293057
0.00561255
0.00455644
0.00089566
0.0013958
0.000272697
2.2957e-05
-0.00122748
0.000113956
0.0072175
0.00112282
-0.0037262
0.00260338
-0.00717765
0.00711404
0.00168267
0.00325675
-0.000283997
-6.09392e-06
0.00224891
-0.00417192
0.00192301
0.000959224
0.00567738
-0.00478172
0.000111577
0.00016112
0.00527508
-0.0060868
0.000155332
0.00125313
-0.00156661
-0.00466886
0.0092253
0.000673311
-0.00251078
0.00719517
0.00339183
-0.000503066
0.000431665
7.14015e-05
-0.00702723
0.00110967
0.000148284
-0.000173064
-0.00111683
-0.00505931
0.00831606
0.00442593
-0.000591964
-0.00383396
0.00156237
-0.00936186
-0.000243203
-0.00507832
0.00532152
0.00133382
0.00434355
0.000148361
-0.000190823
-0.000181553
0.000434433
-0.00239601
0.00131373
-0.0013853
0.00679327
-0.00540796
-0.00156559
-0.000110354
0.00722439
0.000267864
-0.000980735
0.00565066
0.0049578
-0.00484385
0.00416599
0.008188
-0.00685418
-0.000283997
-0.00230203
0.00835364
-0.00605161
0.000220405
-0.000723471
0.00171003
-0.00148962
-0.00139987
0.000676395
5.24158e-06
0.00428508
-0.00332586
0.00862639
-0.00297572
0.00304062
-0.0041874
0.00835339
-0.00207743
-0.000318573
-0.00290842
-0.00267026
-0.000278986
-5.01114e-06
0.00216015
0.0122655
-0.0101581
-0.00210744
0.00208361
0.0061044
0.00449124
0.00126755
0.0101537
-0.00590443
0.000699529
0.00443898
-0.00059183
-0.0018098
0.00209533
0.0053961
-0.000496636
0.00246943
0.00979608
0.00564394
0.00302378
0.00532986
-0.000186002
0.00514381
-0.00382947
-0.00026074
0.00409021
0.00932904
-0.00724543
-0.00125127
-0.000148598
0.00227471
-0.00298099
0.0168327
-0.0100424
-0.00679037
0.00111806
0.00888058
-0.0058568
-0.0037262
-0.0115002
0.00134213
-0.00316987
0.00760885
0.00621275
-0.00670939
-0.000278986
-0.00450333
0.0060657
0.00336413
-0.000323509
-0.0093625
-0.0021377
-0.00222303
0.000145602
8.86418e-05
-0.00260338
-0.00235212
0.00729238
-0.00164844
0.0101776
0.00305376
-0.00315616
-0.00037331
-0.000175182
-0.000103804
0.00265458
0.00667446
-0.00116571
0.00326694
-0.00483253
0.0130403
-0.0105708
0.00414211
0.00169224
-0.00224537
0.00199731
0.000248057
0.000605706
0.00412251
0.00494926
-0.00064143
0.000697894
0.00649728
0.00432131
-0.000320459
-0.000623346
-0.000529702
-0.00260645
-0.000640437
0.000396874
-0.00154558
-0.000965195
-0.000766836
-0.000352305
-0.00194988
0.000698612
-0.0038128
-0.00199754
-0.000727371
0.00436592
-0.00363855
0.00772697
0.00910577
-0.00404902
-0.000753874
0.00475358
0.00381038
0.0050702
0.00444684
0.000969466
-0.000219956
-0.000175182
-0.00697246
0.00968251
-0.00702793
0.000154167
0.000316613
0.00460842
-0.00479442
-0.00019882
2.36384e-05
-0.00391487
0.00803738
0.00111876
0.00722248
-0.00786391
-0.00116764
-0.0024085
0.00931213
-0.00550176
0.0112407
-0.0098986
-0.00035387
-0.00359902
-0.000572895
0.00263368
0.0104066
-0.00299186
0.000768828
-0.00213741
0.000669893
-0.00226255
-0.00909604
-0.000266468
0.00185245
0.00830128
0.00831742
-0.00356383
-0.00185526
0.00633835
-0.00448309
-0.000842526
0.000202089
-0.00827147
-0.000824563
0.00126994
0.00120433
-0.0026707
-0.00158466
0.000405185
0.00319355
0.00648896
0.000853994
-0.00232094
0.00146695
-0.00157691
-0.000962621
0.0011153
0.00440254
-2.2951e-05
0.00721969
-0.00169734
-0.00111226
-0.000837618
0.00605352
-0.0099361
0.00633708
-0.00305082
-0.00429703
-0.00282383
-0.00134967
0.0041735
0.00561
0.00251066
0.0034819
-0.00237774
0.00698617
0.000645957
0.00710061
0.0108603
-0.000946839
0.00180083
0.00608219
0.000952451
-0.00276225
0.00470779
0.00460435
0.0124683
0.00735331
-0.00737626
0.0103989
-0.00720532
-0.00181039
-0.00308457
-0.0115641
0.00126197
-0.00203416
-0.00210457
-0.00088729
-0.00936928
0.012003
0.015345
-0.00815918
0.00423906
0.00739675
-0.0023051
0.000720439
-5.24182e-06
0.00149507
0.00222285
-0.000299843
-0.00854752
-0.00135108
-0.00329477
-0.00107799
-0.00207817
-9.21526e-05
0.000151921
-5.97685e-05
-0.00486705
0.00926959
8.41182e-05
0.00118583
0.00110457
-0.000372324
0.0101086
-0.00540079
0.0093851
-0.0087152
-0.00881398
0.00471023
0.00439553
-0.000325701
0.006543
-0.00105897
-0.00283585
0.00172358
0.0040729
0.00632597
0.000325377
-0.00631874
-0.00195274
0.00181173
0.00050924
-0.00189423
-0.0026091
-0.00229152
0.00619439
-0.000148284
0.000517465
1.58162e-05
0.00232656
0.00102007
-0.00164342
-0.0070596
0.0112987
0.00828542
-0.00204318
0.00197145
0.00848619
-0.000191662
-0.00680675
0.000488013
-0.001654
0.0118108
0.00185059
-0.000833259
0.000399308
-0.00134615
0.00730131
0.00552945
0.00533086
0.0100909
-0.0097655
-0.000793781
0.00248602
-0.00101409
0.00332664
-0.00570439
0.00485349
1.03087e-05
-0.00012939
0.00185226
-0.00398967
-0.00313424
0.00102967
-0.00199214
0.000111577
0.00761779
0.00485049
-0.00414476
-0.0023304
0.00647516
0.0129262
0.000701289
0.00562382
0.00448475
-0.000468711
0.000868019
0.00579733
-0.0106644
0.00677559
0.0119923
-0.00791937
0.00775122
-0.00589876
-0.00179113
-0.00225789
-0.00649919
-0.00221601
0.000323761
0.00052455
-0.00084831
0.013093
-0.00785027
-0.00113641
-0.00169944
-0.00489863
-0.00252595
0.000754836
-0.00108054
-0.00538733
-0.00342665
0.00279382
-0.00437072
-0.00699938
0.00459088
0.000364444
-0.00142341
-0.00469821
0.00539611
0.0120133
-0.00314081
0.00239428
0.000224875
-1.37394e-05
-0.000211136
0.00288556
0.00149617
-0.00734007
-0.000264606
0.000634212
-0.000369606
-0.00298991
-0.00088858
5.6395e-05
-0.00114391
0.0029945
0.00243458
-0.000963856
0.000390961
0.00684764
0.00445102
0.0113518
-0.00572798
-0.000909991
0.00281822
0.00816482
0.00364602
-0.0070353
-0.000981703
0.00892353
-0.00371462
0.00704126
0.00134211
0.00788843
-0.00276889
-0.00403786
0.00584538
-0.00582956
-0.000663046
0.000887922
0.0127372
-0.00445181
7.64001e-05
-0.00316097
0.000433051
-0.00144714
-0.00119707
0.000234449
0.000408326
-0.00234061
-0.000793625
0.0134957
0.00958967
0.00333653
0.00509841
0.00689386
0.00504747
-0.00773875
0.00089327
-0.000191981
0.0001042
-0.000572912
0.00459249
-0.00628983
-0.00509929
-0.00331664
0.00218023
-0.00200177
-0.00698237
0.0031523
-0.00432259
0.0101199
-0.00461824
0.0114659
0.0092612
-0.00440771
-0.00814416
0.0110297
0.0105505
0.0140407
-0.000990362
-0.000187267
-0.00207107
0.00356724
-0.00184064
-5.35957e-05
-0.00434222
0.00673649
-0.00200061
-6.2517e-05
0.00105389
9.04607e-05
0.00275412
-0.00323349
-0.00461679
-0.000826136
-0.0040725
0.00811899
0.00956641
0.00244691
0.000923436
-0.00770398
-0.00223211
-0.00666014
-0.00118992
-0.00164304
0.00066222
-0.0015508
-0.00278915
-0.000818468
0.00856968
0.00260195
-0.00481797
0.00075327
0.000588838
-0.000113948
-0.000867755
-0.00169549
-0.00564458
0.00290993
-0.00495312
-0.00308403
0.0132124
0.00306673
0.0113304
0.00216532
0.0146669
-0.000784925
0.0035914
-0.00309669
0.00480939
0.000544613
0.000343309
-0.00322761
0.00136559
-0.0045064
-0.00573336
0.0093927
0.00819574
0.00539841
-0.00705241
-0.000788232
-0.000497636
0.000561289
0.0136797
-0.00858128
0.000881502
-0.000473176
0.00512719
-0.00944978
-0.000686859
-0.00078105
0.000336872
-0.00307495
0.000734335
0.00143066
0.01261
0.00311035
-0.00195241
-0.00136423
0.00116531
-0.00135257
-2.66468e-05
-0.000963716
-0.0127557
0.00505167
4.64233e-05
-0.000132062
-0.00107974
0.000794533
-0.00589382
-0.00329711
0.004351
-0.00561243
-0.00138695
-0.00796187
0.00143803
0.00199412
0.00947177
-0.00617225
0.00245763
0.000270132
0.00916148
0.00138901
0.00165799
0.00023359
-0.000143129
-0.000191231
0.00111467
-0.00045729
-0.000961295
0.000509944
0.000390117
0.00105265
-0.00328476
-0.0023915
-0.000385492
0.00142612
-0.000653925
0.0116084
-0.000457215
-0.000360849
-0.00179538
0.00997162
-0.00101994
-0.000894402
-0.00327796
0.000832065
0.000397606
0.0117355
0.00147691
0.00721353
-0.00812352
0.0140932
0.000573714
-0.00138734
0.000270512
-0.00175948
0.000255349
-0.00691549
3.25405e-05
0.000109621
0.000314
-0.00109892
0.00954795
-0.00142896
0.0061729
0.0139008
0.000449655
0.000665188
-0.000451213
-0.00082408
-0.00379271
-0.00239523
9.01317e-05
0.00300112
-0.00608515
-0.00522705
0.00136704
-0.000805755
0.000576899
-0.000269242
-8.30629e-05
0.000959598
0.000258055
-0.00538923
0.0155238
-0.00100992
-0.0033608
0.0146041
-0.00122003
0.000746859
0.000580758
0.000523813
-0.00564205
0.00636326
0.00731643
-0.00667408
-0.00128779
-0.000248453
-0.000438406
0.012777
0.00428978
0.00396601
-0.00596778
0.001619
-0.00197985
0.000201701
-0.00259694
1.44695e-05
-0.00379903
-0.00105047
0.0021672
-0.00416781
-0.000649716
-0.00180163
0.0112734
0.00389094
-0.00203724
-0.00103771
-0.000299367
0.000964556
-0.00819539
0.00963342
0.00192777
-0.00766113
-0.00150528
0.00145693
0.000851531
-0.00123702
-0.0101752
0.0132855
-0.000891419
-0.000988313
2.70175e-05
0.00774631
0.00877453
-0.000730134
0.000272844
0.00615922
-0.00134983
-0.0015065
0.00177663
0.00308029
-0.000499595
-0.000391582
0.000281391
-0.000391828
8.87894e-05
0.00452566
-0.000174656
-0.00396605
0.00969029
0.0109602
0.00064815
-0.000245973
-0.000648429
0.000630816
-0.00023321
0.00477707
-0.00559554
-0.00064964
-0.00257797
-0.000247393
-0.00442915
0.00258851
0.00535772
0.000971566
0.00045455
0.0124372
0.0107848
-0.000717801
0.0138094
9.14551e-05
0.000522616
0.000224243
-0.00098711
-0.000174939
-0.000697594
-0.00073869
-0.000359761
-9.14523e-05
0.000161117
0.004467
-0.00774496
0.0143831
-0.00352178
0.0011582
-0.00114373
0.00473026
0.000347827
0.000229071
-0.00068438
0.00025305
-0.000902766
0.00536495
-0.00716033
-0.000962806
0.000900289
-0.00444867
-0.00161815
-0.00400226
0.00287763
-0.00121964
2.52132e-05
0.000232842
-0.00141161
0.000361137
-0.00407529
-0.00284019
-0.007868
-0.00142349
0.0126969
0.0159511
-0.00134691
-7.88249e-05
0.00470424
0.0169221
-0.00139825
0.000337599
-0.000313576
-2.40228e-05
0.00354146
-0.00893069
-0.000332743
-0.0122543
-0.0082067
0.00660074
-0.000660001
0.000268173
0.00149418
-0.00414277
-0.00149928
-0.00113877
0.00769338
-0.00877311
-0.000395378
0.000865781
-0.00111317
0.006955
-0.00846028
0.0007414
-0.001241
0.00270415
-0.000927521
-0.0023214
0.000662255
0.000297344
0.00252949
0.010136
-0.000445673
-0.000893211
-0.00411967
-0.000220864
-0.000170718
0.000802377
-6.62391e-05
0.0107841
9.27956e-05
0.000244803
0.000742466
-0.000917405
0.0129028
-0.000465624
-0.000654205
0.000878449
-0.00672074
-1.53305e-05
0.000169498
-0.000430142
0.00530159
0.00244472
-0.000602831
-0.000727567
9.76613e-06
0.0015278
-0.000517465
0.000163595
0.000874144
9.04116e-05
-0.00341626
0.00137902
0.00538545
-0.0093515
0.0129942
-0.000292409
-0.00455137
0.00579038
-0.00123901
-3.69847e-05
0.0145276
-0.000401263
0.0155752
-0.000541039
0.00252072
0.0101762
8.71945e-05
0.000895097
0.0160235
-0.00164041
-0.000205323
-7.83433e-05
-4.30709e-05
0.000121414
0.000136085
0.000299843
9.11181e-05
-0.000268314
-0.000416066
-0.00036643
8.20757e-06
-0.00235951
0.00126776
-0.00134659
-0.00193991
0.00671698
0.00611766
0.0127468
-0.00713586
-0.0056109
0.00538401
-0.01196
0.0105731
0.00117149
7.29874e-05
-6.26787e-05
0.00782232
0.0110897
-0.0121096
0.0146253
0.00167037
-0.00609952
0.00801694
-0.00963509
0.00015459
-0.000991354
-0.000147412
-3.5447e-05
-0.000857764
0.000238901
-0.00063428
-0.000548582
0.000215839
-0.00180085
0.000873324
0.00207474
0.00265552
-0.00153267
-0.0031083
-0.000176463
0.0120532
-0.0012691
-0.00158707
0.00681183
-0.00965202
-0.000439031
-0.000952851
-0.000538816
0.00812401
-0.00103929
0.00851517
-0.00950228
-0.0109831
0.0156873
-0.0018894
0.00690622
0.0117374
-0.0126289
-0.00127324
0.0039552
-0.00142571
0.00738084
-0.00888012
-0.00312223
-0.00128376
0.000844297
3.41518e-05
-0.000487159
0.0115876
0.000797677
-0.000834662
-0.000443335
-0.00211886
0.000194063
0.000552825
-0.000746888
0.00341416
0.00125801
0.000236175
-0.00179726
0.00115811
-0.00155938
-0.011642
0.0092505
0.00966579
-0.0102686
-0.00186015
-0.00842364
0.00451946
0.0148626
-0.00186837
-0.000177165
0.0118589
-0.0116978
0.00651189
-0.0106316
-0.00623053
7.83433e-05
0.00044547
0.000565329
0.000237048
0.000100976
-0.000467405
0.00400124
0.00617493
-0.00043946
0.000373221
-0.000188477
-9.77058e-05
6.3651e-05
0.00037318
-0.000285986
0.0127004
-0.00558068
-0.00114006
-0.000223621
-0.0040644
0.0196396
-0.00283961
0.000163397
0.019449
-0.00492144
0.0132222
-4.64362e-05
-0.00109432
0.00262212
0.010902
-0.0111074
2.0842e-05
-1.26344e-05
-0.000775846
-0.000756827
0.00140703
-0.00125244
-0.00163361
-0.000257946
-0.00611992
0.0101212
0.00848756
-0.0108471
0.000251457
-0.000251457
0.00712225
-0.00044547
0.00072686
0.00274074
-0.00186742
0.000838948
-0.0017918
6.8967e-05
-0.000224464
0.00106876
0.00131503
0.00057237
0.0010382
0.00678412
0.00129216
-0.00486543
0.0182773
-0.00365209
1.24368e-05
-0.000551253
0.000163512
0.0015612
0.00989844
-0.00177443
0.000148716
-1.8499e-05
-0.000420532
0.000620679
0.000274417
0.0130804
-0.0135105
0.0133291
-0.00744083
0.00862934
0.0115224
-0.000432738
-0.000449773
-0.000589521
0.0135485
-0.00196086
0.0009939
-0.000720427
-0.000454968
-0.00119363
-0.00114753
0.000801504
0.00161868
-0.000567914
-0.00105077
0.000363473
-0.000540638
-0.000437602
0.000633415
-0.000978256
-0.000163595
6.58103e-05
-0.00218137
-0.010316
0.00679425
0.000257891
0.00721313
-0.000372188
0.00163277
-0.00357268
0.00151782
-0.0017063
0.0116801
-0.000255638
0.0142129
0.0147181
0.000771715
-0.000608317
0.0114314
-0.0118747
0.000219956
-0.000235286
0.00839934
-0.00672897
0.00998498
-0.0104721
0.000332959
0.00900513
-0.011124
-0.00243216
0.00695163
-0.000735759
-0.00371162
0.00243838
0.00100953
-0.00105597
-0.000769944
-3.11337e-05
0.00112768
4.38052e-05
0.000473014
-0.00210662
0.000265382
-0.00864694
-0.000233179
-0.00024082
1.71997e-05
-0.00126676
-0.000600661
-0.009787
-0.00202358
-0.00106892
-0.00162642
-0.000439811
0.000439811
0.0014021
0.0165415
-0.00331929
-0.000792074
-0.00131879
-5.7059e-05
0.0132838
-0.0135417
0.00138256
-0.0010895
0.00146635
-0.000893981
3.82314e-05
2.81297e-05
-6.63612e-05
0.00939159
-0.0122312
-0.000184101
0.000324001
0.00365107
-0.00233603
0.000231077
0.00435196
0.00148032
-0.00220074
3.77426e-05
0.00103102
0.0102309
-0.00160152
-0.00226729
-0.000376926
0.0104981
0.00125299
3.91656e-05
0.00146969
0.0128894
0.0135474
-0.0133839
0.00018264
-0.00062245
-0.00145549
-0.000648177
-0.00072686
0.000817272
0.00494255
0.000858034
0.00827
0.00117326
-0.00162823
-0.00550339
0.00706459
-4.45189e-06
0.000153168
-0.000225984
0.000836914
-3.54105e-05
0.0213722
-0.00804308
-0.00115743
0.000117291
-0.00328628
0.0104994
0.000197545
-0.000374008
0.0115752
-0.0127227
0.000651524
-0.000393633
-0.00232404
0.0121201
0.000940168
5.37322e-05
0.014151
-0.0024709
0.000958512
0.0015935
-0.00132811
0.000305375
-0.00232896
0.000957368
0.0140238
-0.0133904
0.000768067
-0.000799201
-0.000226731
-0.00180125
-0.00366114
-0.00106553
0.00241515
-0.000782385
0.00162428
-0.00222494
0.0212744
-0.00655626
-0.000575669
0.00144824
-0.000711757
-0.000960889
0.00022513
0.000585451
-0.00064251
0.0014549
-0.00277369
0.019665
-0.00545207
0.000699515
0.00178134
-0.00739225
-0.0106233
0.00219967
0.00129074
0.00223557
0.0108317
-0.000299478
0.000885852
-0.000654775
0.00087608
5.66695e-06
-4.91061e-05
0.00108012
0.00991673
0.0114554
0.0095398
-0.00116236
-0.000745842
-0.000145872
-0.000646201
-5.35579e-05
0.00721179
0.000616113
-0.00813246
0.00704296
0.00678562
0.0116457
-0.0113127
-8.32942e-05
0.00186464
0.0013477
-0.000489662
-0.0017741
-0.00642838
0.0107803
0.00619486
-0.0012523
0.000521685
0.0109262
-0.0125526
0.00459334
-0.00210299
0.000374433
0.00167343
-0.00189941
0.0115894
-0.0118226
-0.0126646
0.00593565
0.00111728
0.000399819
0.000639927
0.0144339
-0.0141099
0.00969519
-0.00142519
-0.00021375
0.0171772
-0.00428785
0.00036127
-6.61024e-05
0.000154892
-0.000807721
-0.00130504
0.0132313
0.00138327
1.88306e-05
0.001437
0.000243341
-3.98979e-05
-0.000440145
0.000345315
-0.00119578
3.83456e-05
-0.00106787
-0.00267034
0.0131088
0.00407103
0.00150607
-0.00330732
0.0127978
-0.0142533
0.000267417
-0.00249235
-0.00206154
0.00722429
0.00069292
-0.0106959
0.000908939
0.000825825
-0.000708535
0.00117833
-0.000478818
0.00108752
0.0129884
-0.00126762
-0.00973742
0.0117252
-0.000113826
0.00140456
0.00122747
-0.00193922
-0.00097065
0.00102587
-0.000149791
-0.00382906
-0.000336531
0.00104352
-0.0104345
0.00677339
0.00183366
-0.0025795
7.50262e-05
0.00129077
-0.000333398
-0.00961408
0.0110623
0.000644565
0.000688671
0.000934806
-0.000318693
-0.000875521
0.0134579
-0.00262624
-0.000817272
0.000861077
-0.00611873
0.0133305
0.00068758
-0.000313147
-6.57555e-05
0.0118645
-0.0122973
0.00490912
-0.00031578
-0.000192936
-2.08139e-05
0.000124248
4.52499e-05
0.00107875
-0.000953582
-0.000125169
-0.00036107
0.00144119
0.0140136
-0.0143131
0.00116285
0.00116625
0.000173959
-0.000956344
0.000249457
-6.11507e-06
0.0131231
-0.00358328
0.0122973
-0.0126695
-0.0118645
0.0114269
0.00109508
-0.000749767
0.00348393
-0.00339157
0.00917008
4.17449e-05
-0.00181584
0.000912044
0.000826208
-0.000133288
0.000657438
-0.000710996
-0.0134394
0.0126695
0.00169794
-0.00375949
0.000415395
-0.000210509
-0.000204886
-0.00129001
0.000482287
-0.000588972
-0.00190338
0.022041
-0.0105856
-0.00160938
-0.00066679
0.0215691
-0.00833774
-7.83433e-05
2.79852e-05
0.000616265
0.0133718
-0.0122545
0.000785016
0.00197783
-0.00324545
-0.00252819
-0.000915237
-0.00933373
0.0134048
0.00205905
0.0126812
-0.0121595
-0.0015564
0.00828931
-0.00106503
0.000368887
-0.0120568
-9.6289e-05
0.00700435
0.0194366
-0.0063278
-0.0122236
0.0111557
-0.000506082
0.00104349
-0.00060167
0.000128613
0.0135296
-0.0148346
-0.00167498
0.00134158
0.000228643
0.0039968
-0.000237979
-0.00131451
0.000343859
0.000618494
7.01773e-05
0.0120568
-0.0122836
0.00130178
-0.00136753
0.000820093
-0.0114269
0.010358
6.99627e-05
-9.60288e-05
2.6066e-05
0.00566308
-0.000723677
-0.00116128
-0.0124073
0.00882407
-0.00589123
-0.0130341
0.00121151
-0.000308546
0.0160302
-0.00430507
0.000299812
-0.000739957
0.000541566
0.000621282
-0.000701561
0.0122836
-0.0122779
0.000552009
-6.99628e-05
0.000269242
-0.000199279
0.00130752
-0.000662953
0.000225786
0.014677
-0.014602
0.000485205
-0.0121252
0.000202488
0.00123871
-0.00063257
-0.000508325
0.00963369
0.00260262
0.000881311
-0.00683987
-0.000552384
0.00758566
0.0109835
0.0110988
-0.000832222
-0.012418
0.0135842
-0.000508508
-0.00198277
0.00102643
-0.000559923
0.00147197
-0.000861077
0.000879908
0.0003138
0.000302465
0.00210192
-0.0040053
0.00223853
-0.00384791
0.0122779
-0.011638
-0.00129667
0.00208169
-0.00165757
-0.00464019
0.00929248
-0.010358
-0.0069651
0.0139694
6.90502e-05
3.93716e-06
-0.00100692
-0.00201366
0.00238255
-0.00110529
0.000190053
0.00970244
-0.0143558
0.0109642
0.00153759
0.000768798
0.000274694
0.0114248
-0.00225471
-0.00225566
0.00174958
0.0014655
-0.00206717
4.41579e-05
-5.92649e-06
0.000363924
0.0129469
-0.00412281
-0.00187267
0.00210131
0.0145927
-0.00865706
-0.000131247
-0.000535543
0.000986778
-0.0014108
0.000131443
-0.0106497
0.0146465
0.000383977
0.0138781
-0.0118191
-0.000163595
-0.00163291
-0.000895282
9.79676e-05
-0.00164426
0.00246436
-7.41959e-05
-0.00320009
-0.000439793
-0.00076143
0.011638
-0.0105945
0.00171861
0.000118844
0.000433165
-0.00233447
-0.014651
0.00239647
0.00598178
-0.011831
0.00770814
0.00331972
-0.000117163
0.00135587
0.00711972
0.000208875
0.00485529
0.0205315
-0.0108978
0.00552688
0.000136192
-0.00172837
0.00106542
-0.000386793
-0.0145738
0.0134125
-0.00229712
0.00278233
-0.00166257
0.00188835
0.000175296
9.11181e-05
-0.00136149
6.8027e-05
0.0087005
0.00012689
0.0171191
-0.0060203
0.00546342
0.0146923
-0.0145637
0.000316947
-0.000400242
7.79857e-05
-8.93542e-06
-0.000781255
0.0197873
-0.00880383
-0.000123094
3.37164e-06
0.000421309
-0.000503328
0.000477004
2.6324e-05
0.00074346
-0.00137603
0.000457052
0.000157531
-0.0134394
0.0027247
-0.00438226
-0.000142358
0.000191801
-0.000700125
-0.00129455
0.00046233
0.0159993
-0.0167229
0.00172018
-0.0027271
-0.000989575
-0.00112321
0.000834371
-0.00134288
-0.000343742
-0.000350716
0.000903541
0.0131418
-0.00343935
0.0129769
-0.00526873
-0.000879908
0.000641929
0.00888955
0.0105945
-0.0106907
-0.00288788
-0.00111742
-0.0140662
0.015053
-0.000720127
0.00225772
-0.000346991
0.0176436
-0.00894312
0.000167233
0.00831528
3.1511e-05
1.26469e-05
0.00327218
-0.000313276
-0.0091239
0.0151057
0.00058031
0.00311215
-0.00208572
-0.00276651
0.00315049
-0.00378316
-0.000199183
0.000297151
3.54481e-05
-0.0162238
0.0103326
0.0154742
-0.00658462
0.00139728
0.00712149
0.00104563
0.000310244
-0.0131414
0.0164611
0.000838281
-0.000564248
0.000233982
-0.0145366
0.00271749
0.000438216
-0.000965866
0.000204436
0.0106862
0.00695738
-0.000583936
-8.9095e-05
-0.000121414
0.00385297
0.0123814
-0.00406615
0.00653105
1.58171e-05
-0.0037612
0.00239971
0.00541752
-0.0121401
-0.000551093
0.00780898
-0.000689257
-0.00525958
-0.000541659
-0.00187285
0.000777676
0.000351836
0.0152604
-0.0135418
-8.79569e-05
-0.0161097
0.0129096
-0.0120568
-3.4549e-05
-0.000297253
-0.00732773
0.0142851
-0.00395509
0.00317383
0.0057968
0.00024601
0.00436963
-0.00305267
0.00347398
0.00196427
-0.0156754
0.00355024
0.0105633
-0.00403222
-0.0160941
0.0166744
-0.0103268
0.0106907
6.99627e-05
-0.00119748
0.000497356
7.5474e-05
-8.14005e-05
0.00323554
-0.000132059
0.00198031
-0.00310352
-0.0159007
0.0149112
-0.00343434
-0.000947919
0.0080137
-0.00089221
-0.00084774
-0.00169737
-0.00447937
0.00239366
-0.010358
-0.00269714
0.000367049
3.79304e-05
3.75437e-05
-0.00455177
-0.000503536
-0.000746786
0.00147708
-0.00131955
-0.000356849
4.35731e-05
0.00131955
-0.00111067
0.00108076
0.00219142
-0.000641929
0.000255136
1.13951e-05
-0.000193677
-0.000206565
0.00111067
-0.000935378
-0.0179247
0.00926764
8.93541e-06
2.65127e-05
0.00394756
-0.000169587
-0.000177404
-0.00546342
0.000823225
0.000935378
-0.000867351
0.00647579
-0.000678986
0.000867351
-0.000740461
0.000696769
0.000235286
-7.58114e-05
-0.000159475
0.000740461
-0.000863555
9.78133e-05
0.000255872
-0.000131624
0.00244357
0.0112882
0.00299692
0.000863555
-0.000406503
0.00393318
-0.0031555
-0.000159651
-0.000184092
0.000391501
0.00015002
-0.00936793
0.0147855
0.000127564
-0.0164807
0.018445
-0.0049146
0.00433067
-0.00145615
-0.000871345
0.00232749
-0.00516063
0.00328778
-0.00147708
0.00178732
0.0172782
-0.0134253
-0.000746061
0.00254856
0.00182107
0.0151286
-0.0124111
-0.00207967
-0.000247608
-0.0013394
5.05773e-05
0.000406503
-0.00023927
-0.0108201
0.00284053
-0.01628
-0.00198679
-0.00333961
0.00357359
0.00165635
-0.000152413
0.00159994
0.00234761
-0.00272318
0.00158676
-0.0168289
0.0159811
3.02037e-05
3.91218e-05
-6.93255e-05
0.0055187
-0.00228316
0.0165753
-0.0167177
0.000920959
-0.0178781
0.0182452
-0.000154467
-0.0066925
0.00499513
-0.00178732
0.00149007
0.0048706
-0.00247695
0.00245189
-0.00339981
-0.00149007
0.000948411
-0.00388496
0.00427647
-0.00759211
-0.00892954
0.00192026
-0.0153574
0.00321736
0.0169054
-0.00199426
0.00023927
-0.000223453
0.00079752
0.00428636
-0.00413634
-0.000651635
-0.000948411
0.000397318
-0.00523338
0.00315371
0.000134372
0.0013602
-0.00236183
0.0017151
-0.000147625
-0.000265409
-0.017603
0.0123435
-0.0019456
0.000566828
1.1626e-05
-2.30935e-07
0.0142083
-3.02887e-05
4.19147e-05
-0.00469346
7.37768e-05
-0.0020639
0.00851561
0.00228316
0.000160413
-4.88863e-05
-0.0006979
-2.65127e-05
7.709e-05
-0.00512005
0.0026431
-0.00183398
0.00349032
7.25494e-06
-0.000255136
0.000123077
3.79072e-06
-0.000568039
-0.00668424
0.00469745
-0.0125169
-0.0127297
3.14071e-06
-0.0146542
0.0022431
-0.0114368
-0.000397318
-0.000106218
-0.00822059
0.00549741
0.000452337
4.5019e-05
-0.00567245
0.00372685
0.00486991
-0.00315481
0.000513637
-0.00196634
-0.00022629
0.000268245
-0.0164793
0.017176
0.000223453
-0.00012564
-0.00168911
0.000733571
-0.0152092
0.0167959
0.00308289
-0.0033483
9.40381e-05
-9.08973e-05
-0.0174059
0.0172514
-0.000823225
7.71647e-05
-0.00742146
0.00505962
-0.000975002
-0.0170883
0.0150941
-0.00394412
-0.000160413
0.00108137
-0.00449107
0.00252473
0.0158173
-0.0135742
0.000106218
-0.000258631
-0.000316916
0.000344685
-0.000764214
-0.00110722
-0.00345441
0.00358197
0.00466029
-0.0020172
0.000839295
-0.000138357
-0.000601601
0.000235286
0.00016617
-0.000817805
-0.00519197
0.00312807
-0.00599165
0.00430254
0.0125936
-0.0117961
0.00150549
-7.709e-05
8.4345e-05
-0.00851561
0.0104359
0.00351186
-0.00277829
0.00337496
-0.00434996
-0.0104359
0.0117961
0.000258631
-0.000184854
-6.54459e-05
-0.000182162
-0.000112527
-0.0125936
0.0131604
-0.00192405
0.000608079
-0.003344
0.0013268
-0.00273206
0.00196785
0.00278447
-0.0142213
0.000163554
-0.00170164
-0.000932026
0.0178285
-0.00362017
0.00012564
8.73204e-06
-0.000819269
0.000119184
-0.00228316
-0.00108137
0.00159501
0.000316669
0.013135
0.000642898
-4.74242e-05
-0.0091041
0.0183717
-0.0144138
0.000839646
0.000794304
-0.00111122
-0.0191421
0.01155
0.00328129
-0.0017758
-0.0193639
0.0102598
-0.0116293
-0.00053173
0.000184854
-0.000197595
1.27408e-05
0.00386489
-0.0163818
-0.00679866
-4.40031e-05
-3.01928e-05
-7.71646e-05
-3.53624e-05
-0.0103564
0.000503007
-0.001379
0.000559727
-0.00141549
0.00136807
-0.00110992
0.000177897
-0.000123077
0.000168096
0.00892954
-0.00907716
0.000588852
-0.0187553
0.0119566
-0.0177787
0.0141585
0.00110676
-0.000943206
-0.0050556
-0.0113262
0.00176115
-0.00111825
-0.0131604
0.0139997
-2.35011e-05
-0.00892954
0.000458369
-0.0055583
0.00161418
0.00830213
-0.00769405
0.00201798
-0.000691177
-0.0177853
-0.00342985
0.00320356
-0.00268465
0.00029117
-0.00221522
-0.016837
0.0157297
7.20058e-05
-3.00911e-05
-0.00781385
0.000242178
-0.0185751
0.0107613
0.00034566
0.000258145
0.0010001
-0.000497093
-0.00159501
-0.000106635
-0.00562028
-0.00755162
-0.0102337
0.00769405
-0.0068544
-4.46041e-06
0.00144706
-0.00085821
-0.000213686
-0.000477492
0.000414469
0.000346042
-0.00830213
0.0086188
0.00271226
-0.00324399
-0.00774426
0.018004
0.000184854
-0.00661853
-1.88915e-05
-0.00243023
-0.0166611
0.00891683
-0.0136814
0.00332501
0.00506618
-0.0163924