/*--------------------------------*- C++ -*----------------------------------*\
  =========                 |
  \\      /  F ield         | OpenFOAM: The Open Source CFD Toolbox
   \\    /   O peration     | Website:  https://openfoam.org
    \\  /    A nd           | Version:  8
     \\/     M anipulation  |
\*---------------------------------------------------------------------------*/
FoamFile
{
    version     2.0;
    format      ascii;
    class       volVectorField;
    location    "0.9";
    object      U;
}
// * * * * * * * * * * * * * * * * * * * * * * * * * * * * * * * * * * * * * //

dimensions      [0 1 -1 0 0 0 0];

internalField   nonuniform List<vector> 
1924
(
(-0.133597 -0.0678562 2.24831e-17)
(-0.0210854 0.061344 2.58865e-17)
(2.00918 1.70803 2.99183e-17)
(3.11059 2.04291 2.15735e-17)
(-0.356207 0.381404 2.07843e-17)
(4.26653 2.65731 2.39101e-17)
(6.09837 3.728 2.68627e-17)
(6.07937 3.6291 2.86012e-17)
(5.21928 3.28795 2.93629e-17)
(1.17009 1.10781 3.28747e-17)
(4.46912 2.963 2.17306e-17)
(3.53792 2.52737 1.03257e-17)
(-0.963578 -0.0787142 7.05068e-18)
(3.77728 2.39958 4.87431e-20)
(5.33022 2.27093 2.16695e-17)
(5.09443 2.76018 1.99422e-17)
(-1.04229 -0.328355 8.91795e-18)
(4.16076 2.23604 -3.47977e-18)
(-0.133114 -0.0512238 2.16292e-17)
(4.58279 2.15843 -1.28033e-18)
(-0.346406 0.0608581 3.35787e-18)
(-0.155806 -0.997422 1.9812e-17)
(-0.810695 8.3029e-05 8.54824e-18)
(4.62243 1.82106 2.66068e-18)
(-0.263174 -1.03156 9.90804e-18)
(1.21392 1.94281 1.40144e-17)
(1.86649 2.27463 8.9491e-18)
(0.45416 -0.0321147 3.86388e-17)
(-0.891019 0.607242 2.7601e-17)
(2.65705 2.14524 1.41392e-17)
(-0.880234 -0.222933 6.6744e-18)
(0.107905 -0.436536 1.41e-17)
(-0.256421 -0.112205 1.72507e-17)
(-0.822352 -0.374563 8.74564e-18)
(0.618438 -0.113226 3.58255e-17)
(-0.684693 0.0505001 8.29367e-18)
(0.661539 0.133771 2.1285e-17)
(-0.435021 1.04338 2.99177e-17)
(2.17823 0.686701 1.05943e-17)
(-1.05985 -0.353248 8.78868e-18)
(1.33944 1.17706 1.66579e-17)
(-0.706217 0.0129732 1.94356e-18)
(1.01311 1.28921 1.6749e-17)
(-0.677551 -0.169461 9.38086e-18)
(1.8148 2.44384 -2.36544e-18)
(-1.50912 0.398199 2.16578e-17)
(-0.0378728 0.167414 2.14215e-17)
(4.01593 4.70904 1.86516e-17)
(0.185993 -0.00644605 1.97944e-18)
(0.0781893 -0.0951962 1.9968e-18)
(0.465093 -0.269644 2.91872e-18)
(-1.09107 -0.0569605 6.06133e-18)
(-0.386925 -1.22513 1.52994e-17)
(0.578107 -0.334073 2.42872e-18)
(-1.63399 0.568004 1.40054e-17)
(1.70349 0.814941 3.12406e-17)
(-0.0758475 0.0325691 2.1523e-17)
(1.72912 2.71226 1.29587e-17)
(0.556988 0.859556 2.25114e-17)
(1.65188 4.43575 3.67064e-18)
(-0.723418 -0.087543 9.1054e-18)
(5.36922 3.37328 2.39394e-17)
(-0.465686 -0.23945 6.84409e-18)
(3.94006 2.39181 -1.10226e-18)
(0.561391 -0.309763 3.98132e-18)
(3.89539 4.83717 1.98577e-17)
(3.94291 5.39611 2.35116e-17)
(-0.493467 -0.187838 8.42888e-18)
(-1.12292 0.617936 2.85734e-17)
(0.330459 -0.330014 3.50582e-18)
(-0.853401 0.521306 1.07036e-17)
(4.97634 4.13232 2.34736e-17)
(2.35644 0.752492 1.41271e-17)
(2.40627 1.95187 9.77977e-18)
(1.73057 0.845066 3.77496e-18)
(-1.20254 0.73491 8.11906e-18)
(4.96553 5.55332 2.27923e-17)
(1.89883 1.06267 4.30797e-18)
(5.19843 5.68989 2.30923e-17)
(0.00682013 -0.137492 4.8462e-18)
(2.61001 0.186712 -2.40691e-18)
(1.90469 2.62269 5.95362e-18)
(3.01041 3.51969 3.49096e-18)
(-0.663464 0.187909 6.65308e-18)
(-0.213999 -0.210675 2.17481e-17)
(-0.339023 -0.277026 5.52982e-18)
(0.92253 0.517112 2.65117e-17)
(5.67951 2.56936 2.63425e-17)
(0.118145 -0.0946348 2.95718e-18)
(-0.868161 0.332153 1.00955e-17)
(4.20754 4.89963 2.13771e-17)
(1.52039 2.99941 6.20762e-18)
(-1.3792 0.554653 2.04827e-17)
(-0.753653 0.762061 2.27159e-17)
(-1.15804 0.299691 6.4374e-18)
(0.489455 -0.27396 6.1394e-18)
(5.62373 5.4789 2.34774e-17)
(2.99854 0.584021 -6.5645e-19)
(1.91009 3.86404 4.8482e-18)
(-1.05643 0.813125 9.17482e-18)
(1.42873 1.8547 3.55276e-17)
(-1.06416 0.113778 6.80953e-18)
(2.21921 3.73679 4.72381e-18)
(1.61772 3.18125 4.94397e-18)
(-0.610613 0.755585 2.61884e-17)
(1.99012 1.0213 -2.37181e-18)
(1.09117 1.26269 3.75865e-17)
(-0.77729 0.666171 2.11513e-17)
(1.19805 4.27768 4.04774e-18)
(-0.704108 0.741738 2.73355e-17)
(6.25003 5.56807 2.53015e-17)
(-0.50716 0.8001 3.5679e-17)
(-0.145871 0.998994 2.43237e-17)
(4.66959 4.99107 2.67448e-17)
(4.62452 4.96818 2.58081e-17)
(-0.514319 -0.00194175 1.09023e-17)
(2.18221 1.87015 2.96765e-17)
(4.11937 2.30039 1.8958e-17)
(0.0228862 0.124406 7.64581e-18)
(5.26724 4.80086 2.52436e-17)
(-0.156722 -0.138826 2.05066e-17)
(0.105895 -0.00282956 4.10394e-19)
(0.280174 -0.061583 1.81668e-18)
(-0.349859 0.168045 1.43366e-17)
(4.33324 5.35687 2.4774e-17)
(0.66068 0.541174 3.18389e-17)
(-1.41633 0.863854 7.32353e-18)
(1.71341 0.735083 -1.55144e-18)
(-0.324789 0.797067 3.43809e-17)
(0.0612108 -0.0364575 -2.74349e-19)
(4.71518 3.56844 2.20328e-17)
(1.85995 1.62674 3.51492e-17)
(-2.30604 2.29708 1.24646e-17)
(4.71047 4.76779 2.08178e-17)
(-1.19328 0.00981365 6.79148e-18)
(0.587947 0.851766 3.31478e-17)
(0.0562987 1.35269 3.4971e-17)
(0.0777204 1.1347 3.82055e-17)
(4.85022 1.69101 4.85027e-18)
(0.0615346 0.629618 3.27403e-17)
(2.32638 1.56686 2.35679e-17)
(4.8513 4.68409 2.44556e-17)
(-0.11706 0.00278912 1.23854e-17)
(-0.0821145 -0.275196 -2.81323e-18)
(3.54749 2.19297 2.71572e-17)
(0.0524686 -0.048052 -3.56375e-19)
(-0.211076 0.437389 2.48868e-17)
(-1.1556 0.613737 8.84213e-18)
(0.982211 4.56812 4.67756e-18)
(-0.0791133 0.483587 8.11729e-18)
(1.80188 2.22944 -6.49666e-18)
(0.0944278 -0.00017674 6.06227e-19)
(-1.41423 0.816063 6.26061e-18)
(3.26677 1.69554 3.16681e-17)
(4.44578 2.42909 2.15418e-17)
(1.13062 0.466416 3.25734e-17)
(0.102998 0.0133386 5.72362e-20)
(0.557964 1.65549 3.73548e-17)
(4.20078 3.14676 2.21166e-17)
(1.97685 3.54082 -2.86662e-17)
(4.41899 4.08052 2.87122e-17)
(-1.6831 0.71725 9.03518e-18)
(3.95867 1.93538 2.79528e-17)
(0.108949 -0.00341057 9.58004e-19)
(1.55163 0.847729 -1.57136e-17)
(1.21833 0.765503 3.45672e-17)
(2.55993 0.701389 3.22114e-17)
(0.107443 0.0187262 7.79753e-20)
(4.08745 3.48035 1.79636e-17)
(0.890217 1.06537 3.62652e-17)
(-0.834172 -0.169116 1.62952e-17)
(5.54239 2.70488 2.04941e-17)
(1.67232 0.576973 -1.39166e-17)
(1.43884 3.53687 3.16317e-18)
(2.83748 1.3165 2.58002e-17)
(-0.399713 0.137658 2.43938e-17)
(4.11082 3.36939 2.80244e-17)
(-0.604419 0.560623 1.20802e-17)
(-0.640334 -0.0310939 6.87096e-18)
(4.9465 2.07698 2.20092e-17)
(1.97454 0.486653 2.94628e-17)
(3.40026 1.29808 1.74094e-17)
(2.81153 2.48236 1.2482e-17)
(2.91788 0.754305 3.07497e-17)
(0.170845 0.012195 7.42075e-19)
(-0.186785 0.228245 2.3656e-17)
(-1.49362 0.716986 8.16154e-18)
(2.88827 1.00463 2.30344e-17)
(3.58946 2.77716 1.8714e-17)
(4.13062 3.95341 2.5094e-17)
(-0.674383 0.616837 1.73424e-17)
(6.22537 3.36967 2.48211e-17)
(3.03382 2.09508 1.89675e-17)
(5.52306 2.48186 1.97029e-17)
(3.83484 1.1186 2.44576e-17)
(0.0896452 -0.00295233 6.89008e-19)
(3.32235 1.49885 1.4455e-17)
(-0.270991 -0.0123187 2.37351e-17)
(0.598853 0.234081 2.46587e-17)
(-0.61901 -0.29389 2.05376e-17)
(-0.0832122 -0.0295323 1.20745e-17)
(-0.0220532 -0.288916 4.01456e-17)
(2.44133 0.94219 3.34848e-17)
(5.19907 2.98392 1.98959e-17)
(-0.754347 0.264824 1.95293e-17)
(2.10551 0.623324 2.75563e-17)
(5.05608 2.53224 1.5545e-17)
(-1.4914 0.279245 1.04134e-17)
(-1.35669 0.6202 7.21651e-18)
(-0.204985 1.32669 9.19283e-18)
(0.109101 -0.00624131 8.86647e-19)
(1.34297 1.12793 3.62902e-17)
(5.34151 1.54225 1.73687e-17)
(3.84435 1.23163 2.11052e-17)
(2.88855 1.16733 2.09247e-17)
(2.00521 1.09392 3.94768e-18)
(0.647086 4.16669 5.8799e-18)
(-0.138658 0.492337 2.21958e-17)
(4.90242 2.76767 1.49818e-17)
(1.28507 -0.0680883 -1.04182e-17)
(0.597212 0.454433 2.95094e-17)
(3.15554 2.68557 5.80872e-18)
(3.15957 0.917899 3.19059e-17)
(5.50367 1.75787 2.32906e-17)
(4.31545 2.81095 1.71147e-17)
(3.23221 1.65901 1.24987e-17)
(2.79637 1.84893 1.26391e-17)
(1.92741 0.314721 -1.27531e-17)
(4.0946 1.59374 1.50694e-17)
(-0.494104 -0.303382 2.31158e-17)
(-2.03363 0.668451 1.16555e-17)
(3.25135 4.74912 1.05009e-17)
(0.955331 0.271588 2.7521e-17)
(-1.30223 0.852891 1.33983e-17)
(3.24991 1.91208 8.61179e-18)
(0.446351 1.72734 -2.30236e-17)
(5.20199 1.04314 2.18324e-17)
(4.45437 2.63309 8.0954e-18)
(4.0685 1.21984 2.74655e-17)
(0.088051 -0.00747196 4.0769e-19)
(2.54326 0.764358 1.18446e-17)
(1.53398 0.378219 2.56759e-17)
(4.93369 0.856321 1.81175e-17)
(-1.40312 -0.0692818 1.24288e-17)
(0.612575 1.32012 -1.3733e-17)
(-1.42912 0.402857 7.74446e-18)
(4.12705 2.56668 9.5323e-18)
(4.54972 2.88678 2.37388e-17)
(2.31417 1.74117 8.92434e-18)
(1.71854 0.174505 -1.31461e-17)
(-0.0818194 0.338784 2.27652e-17)
(0.1041 -0.014402 3.59832e-19)
(3.96294 1.68919 1.55023e-17)
(2.68066 1.23285 2.99414e-17)
(2.93341 1.9572 1.89349e-17)
(5.58181 1.33639 2.81244e-17)
(1.02982 2.05145 1.45209e-17)
(1.02634 0.106348 2.04724e-17)
(1.14465 0.392229 3.15056e-17)
(4.20505 2.51822 5.42259e-18)
(2.2922 0.583014 3.23024e-17)
(4.27755 1.36578 2.23089e-17)
(1.2001 3.55483 4.99976e-18)
(2.25075 1.57489 1.00058e-17)
(-0.285995 -0.371047 1.08208e-17)
(1.05636 -0.680539 3.87191e-19)
(-0.118708 -0.295152 3.55852e-18)
(1.33113 -0.15991 -1.28231e-17)
(-1.40922 0.796889 1.21122e-17)
(0.000901332 0.229616 1.83608e-17)
(-0.943264 -0.392334 2.40164e-17)
(2.4035 1.80575 -4.30927e-18)
(-1.45382 0.0915789 1.47304e-17)
(1.79686 0.701812 2.00268e-17)
(3.06317 5.09342 1.1716e-17)
(2.48698 -0.332477 1.88078e-18)
(4.07096 2.44889 1.11366e-18)
(2.99857 2.08706 8.63414e-18)
(3.47838 1.44691 2.92888e-17)
(0.430966 0.118211 2.56908e-17)
(-0.0825466 0.0334259 1.75513e-17)
(0.0763269 -0.00887397 1.65217e-19)
(3.78559 4.82296 1.19432e-17)
(3.95871 1.95 7.52041e-18)
(-0.158775 -0.151543 2.06721e-17)
(3.03796 2.85839 1.51181e-17)
(2.84337 1.578 -2.24512e-18)
(0.0892554 -0.0230595 -1.46204e-19)
(4.54389 2.52355 2.28344e-18)
(1.58248 0.462616 2.3236e-17)
(4.55344 1.69674 1.85173e-17)
(1.39205 -0.650401 9.12633e-18)
(2.95388 2.42839 6.40003e-18)
(5.26924 0.40157 2.91916e-17)
(0.241034 -0.260188 1.01751e-17)
(1.41217 0.808511 -1.62718e-17)
(5.58475 1.6644 2.86911e-17)
(-1.4019 -0.498612 1.39456e-17)
(1.20147 -0.484838 -1.30876e-17)
(5.33978 0.65141 2.86431e-17)
(0.0660122 -0.0174291 -4.39207e-19)
(4.26189 1.47651 2.63681e-17)
(4.70821 0.204509 2.42403e-17)
(0.345661 4.28845 6.4227e-18)
(4.60739 2.44031 6.36874e-19)
(2.31397 1.33909 1.43261e-17)
(-0.655118 -0.0956322 5.79267e-18)
(4.39236 0.118685 1.91893e-17)
(1.00911 0.125214 2.06801e-17)
(3.45724 3.31512 1.60127e-17)
(-1.56443 0.283877 9.51435e-18)
(-0.466911 0.490955 9.44944e-18)
(3.81277 2.03271 6.25111e-18)
(-0.558818 -1.25516 5.49403e-18)
(2.62069 1.64502 1.36131e-17)
(-0.621222 -0.130459 6.01708e-18)
(2.56402 0.698422 2.94692e-17)
(4.84858 2.56793 1.57865e-18)
(4.34917 1.81024 1.31806e-17)
(3.36436 1.04031 2.34735e-17)
(1.04702 -0.878969 9.99121e-18)
(-0.497622 -0.668689 2.4177e-17)
(4.95406 1.81974 2.37229e-17)
(2.77814 2.9422 6.02366e-18)
(2.25124 1.96755 8.52761e-18)
(1.93732 -0.259344 -7.94016e-18)
(2.34097 0.932978 2.16158e-17)
(1.70085 0.79592 1.83264e-17)
(4.54244 2.42589 2.30194e-17)
(3.21996 1.54061 -4.72022e-18)
(0.653525 0.0283731 2.42146e-17)
(3.53107 5.74466 2.14401e-17)
(-0.494301 -1.07953 2.79277e-18)
(4.96296 2.41257 1.53473e-19)
(0.953901 -1.05069 -1.37872e-17)
(2.71751 2.59507 5.62055e-18)
(2.34175 5.04366 1.17066e-17)
(4.27601 2.07488 8.02037e-18)
(3.95274 2.3393 4.20685e-18)
(4.79659 1.93342 1.78693e-17)
(1.74882 -0.372715 -1.06725e-17)
(3.99011 4.56895 2.09456e-17)
(-0.487987 -1.15778 7.55409e-18)
(-1.3538 -0.599397 1.67277e-17)
(5.11474 1.16163 2.08034e-17)
(4.0462 3.80249 2.4787e-17)
(-1.51207 -0.0291112 9.4428e-18)
(3.5293 5.91738 2.58073e-17)
(-0.731552 0.849701 9.90249e-18)
(2.11685 1.49907 1.24041e-17)
(0.61275 0.771854 1.46438e-17)
(0.0792948 0.390745 1.43623e-17)
(0.837269 0.749923 -3.04308e-17)
(4.88377 -0.390069 2.96625e-17)
(-1.50504 -0.0628364 1.07313e-17)
(1.45263 -0.777791 -1.34148e-17)
(0.0721329 0.0580502 -1.3062e-18)
(5.16662 2.69865 4.43443e-18)
(0.492882 -0.361804 2.79645e-17)
(0.414641 -0.203476 6.22167e-18)
(2.93334 3.01698 4.16418e-18)
(4.81172 0.0549641 2.02977e-17)
(4.74849 -0.533656 3.16123e-17)
(2.64895 5.64423 1.2346e-17)
(0.0761559 -0.0259737 1.24736e-17)
(4.77382 2.2653 1.36705e-17)
(-0.51843 -1.1261 7.2278e-18)
(-0.771095 -0.974399 2.37763e-17)
(3.80595 2.50183 2.20325e-18)
(4.12334 2.14556 4.50461e-18)
(4.05041 -0.608216 2.64668e-17)
(3.39625 1.21144 2.11963e-17)
(1.20042 0.294711 1.67065e-17)
(1.79328 -0.43339 1.98279e-17)
(1.1832 2.7096 1.10136e-17)
(-0.111765 -0.183763 9.95732e-18)
(4.52954 0.318036 1.68918e-17)
(4.8623 1.52563 1.85891e-17)
(-0.409113 -0.921716 9.40121e-18)
(3.38841 5.5339 2.58908e-17)
(3.54816 4.44641 2.72018e-17)
(1.21513 -0.922422 -1.49502e-17)
(2.35317 1.05768 1.9132e-17)
(3.70964 1.52866 1.58498e-17)
(0.138819 -0.222451 2.2318e-17)
(3.69096 -0.725305 2.05231e-17)
(0.919451 -1.541 -4.96196e-18)
(2.97967 5.90805 1.80491e-17)
(0.986169 2.24214 1.42932e-17)
(4.47066 2.28321 8.36605e-18)
(1.12315 1.78998 -2.68626e-17)
(-0.454227 -0.767169 4.49767e-18)
(2.86332 1.46675 1.4174e-17)
(2.90585 6.34195 2.31706e-17)
(4.25595 2.37166 2.52508e-18)
(-2.32589 1.32439 9.03205e-18)
(0.776801 1.42549 1.4298e-17)
(-0.475136 -1.0071 7.75484e-18)
(3.41373 1.34464 -4.67819e-18)
(3.67591 2.73826 1.90921e-17)
(0.0173445 -0.0671693 -3.70318e-19)
(0.930116 -1.77068 -1.76384e-17)
(-1.4212 -0.671803 1.71435e-17)
(-1.31184 0.774246 1.39699e-17)
(0.0856689 0.00852884 5.14415e-20)
(1.89827 5.57812 1.30744e-17)
(2.98059 -0.801697 7.36511e-18)
(2.9912 6.32656 2.52162e-17)
(0.37966 -0.513256 3.28215e-17)
(0.493715 0.665395 1.59999e-17)
(2.69254 3.19592 5.26944e-18)
(-0.249661 -0.494625 4.76245e-18)
(5.38649 2.7701 6.72108e-18)
(4.33441 2.44403 5.29437e-18)
(4.22157 2.88028 4.47007e-18)
(-0.0919184 3.55722 1.34534e-17)
(1.98452 -0.821866 -4.43587e-18)
(4.11182 -0.880397 1.66654e-17)
(-0.143652 -0.337979 1.16203e-17)
(6.16781 4.27639 2.51198e-17)
(4.39891 -1.11167 2.05436e-17)
(-0.574932 -1.09473 2.1919e-17)
(2.66295 -0.825314 2.28781e-18)
(-1.46659 -0.404979 1.27386e-17)
(-0.291269 -0.69065 1.08616e-17)
(4.23568 -1.43343 3.17854e-17)
(2.38129 1.37948 3.00304e-18)
(1.20208 -2.02371 1.07627e-17)
(-0.531874 -0.83704 7.05547e-18)
(0.987634 3.11789 8.67296e-18)
(2.04632 5.96436 1.35515e-17)
(1.80253 -0.994459 -8.93347e-18)
(1.0119 3.81225 4.09979e-18)
(0.208293 0.0666849 7.11748e-18)
(4.24505 2.56475 3.47491e-18)
(0.936301 2.72003 1.07744e-17)
(4.01351 -1.53526 3.49863e-17)
(0.308279 -0.374576 2.79539e-18)
(4.40797 2.49305 3.14995e-18)
(-0.475363 -0.915806 9.34582e-18)
(0.195721 -0.353521 2.17363e-17)
(0.834785 1.74689 1.37961e-17)
(3.62531 1.65199 1.08685e-17)
(0.486475 -0.0438985 -2.52669e-17)
(2.61567 6.10968 2.64884e-17)
(1.7038 2.41093 -2.90975e-17)
(3.0603 3.72018 6.75392e-18)
(0.691873 -2.0136 -1.93016e-17)
(2.75674 1.63117 1.27451e-17)
(2.33414 6.55802 1.90767e-17)
(3.86219 0.982084 1.75689e-17)
(-0.507664 -0.672232 6.49835e-18)
(3.63521 1.88008 7.64459e-18)
(3.71416 1.19819 -4.95126e-19)
(0.770542 1.3157 1.25822e-17)
(2.7651 1.95524 9.89888e-18)
(3.21837 -1.73055 2.93952e-17)
(3.41249 -0.341799 1.31287e-17)
(0.340106 0.308123 4.83494e-18)
(2.65857 3.99905 3.12977e-17)
(1.38738 -1.33439 -1.30782e-17)
(-0.500489 -0.837568 5.999e-18)
(-0.575099 -0.314265 6.90741e-18)
(0.138421 0.520592 7.40836e-18)
(-1.53151 -0.505082 1.64481e-17)
(2.26268 6.72315 2.2354e-17)
(2.19748 6.99535 2.5564e-17)
(4.09704 3.17841 5.93298e-18)
(4.60619 2.56639 2.3534e-18)
(4.4564 4.93797 2.10766e-17)
(0.243938 -0.119457 1.06262e-17)
(-0.25181 -0.296574 5.60493e-18)
(0.504772 -2.67272 1.48898e-17)
(2.86216 -1.7462 2.19383e-17)
(-0.7838 -1.3216 1.1886e-17)
(1.18962 -1.49992 -1.55272e-17)
(1.63731 -1.6357 1.39936e-17)
(5.55782 2.86681 1.81707e-17)
(2.42302 5.57582 3.07562e-17)
(2.70058 2.23079 2.39501e-17)
(2.72461 4.09115 6.86205e-18)
(4.66446 2.7421 4.80938e-18)
(1.33911 5.28211 9.78356e-18)
(2.10059 6.90507 2.64391e-17)
(-0.522924 -0.714125 7.42405e-18)
(-0.028117 -0.571212 1.02938e-17)
(0.590306 2.03754 1.28227e-17)
(1.03444 -0.938766 1.79884e-17)
(0.700933 3.50996 6.73313e-18)
(2.67878 1.3524 -5.08103e-18)
(-0.108009 -0.258411 4.2009e-18)
(0.644551 3.0334 1.05878e-17)
(0.0137343 -0.0854101 5.20091e-18)
(6.17658 4.00559 2.59334e-17)
(3.58012 -2.13908 1.69358e-17)
(2.20577 -1.75356 7.34237e-18)
(2.36715 4.38561 3.43187e-17)
(1.56292 6.31041 1.37785e-17)
(0.602135 1.48939 1.45314e-17)
(3.88708 2.09399 1.00175e-17)
(3.83244 -2.28977 2.3676e-17)
(3.03055 -0.123912 1.66225e-17)
(-0.15892 -0.800607 2.42533e-17)
(-0.399858 -0.861357 8.39097e-18)
(-1.32387 -0.54642 1.22404e-17)
(-0.473982 3.45619 1.64689e-17)
(2.94427 -1.52683 1.21852e-17)
(0.601084 0.527862 8.03552e-18)
(-0.48055 -0.466862 6.34738e-18)
(3.46045 -2.6057 3.60411e-17)
(0.869865 -2.23293 -2.09126e-17)
(1.85722 -1.6512 -3.97767e-19)
(1.62593 6.65494 1.76208e-17)
(3.44067 2.01424 6.77712e-18)
(1.48505 7.15407 2.28871e-17)
(1.40886 7.32708 2.5444e-17)
(-0.434663 -0.760036 7.35944e-18)
(2.54313 2.11724 6.6023e-18)
(4.89679 2.79822 4.91535e-18)
(2.10695 2.73432 2.84146e-17)
(0.539368 0.245197 3.59432e-18)
(2.49501 -1.4265 1.2959e-17)
(1.33354 -2.01842 -1.14097e-17)
(3.1713 -2.65772 3.91696e-17)
(3.4775 2.32517 4.50326e-18)
(2.5005 2.41682 5.84123e-18)
(0.85959 -3.42054 -3.51776e-18)
(-0.685737 0.233836 6.24876e-18)
(0.461469 -0.126555 1.78004e-18)
(4.54098 3.57271 1.1735e-17)
(0.353597 0.524109 1.15221e-17)
(5.67057 2.73746 2.27608e-17)
(-0.363912 -0.300676 5.97469e-18)
(-0.3544 -0.200016 5.74845e-18)
(-1.58801 -0.428867 1.12595e-17)
(1.14114 7.52115 2.72586e-17)
(4.66858 3.03679 6.14496e-18)
(-0.628215 -1.33049 1.20303e-17)
(-0.610721 -0.317429 9.48628e-18)
(-0.113214 -0.806163 8.04893e-18)
(-0.479754 -0.539096 6.38999e-18)
(5.14371 2.81831 2.65579e-17)
(-0.0868882 0.121546 8.1684e-18)
(0.713206 -2.5773 -2.10234e-17)
(2.27932 -2.74103 3.2016e-17)
(0.271939 2.42416 1.26859e-17)
(0.879807 -3.10319 1.02177e-17)
(4.68812 2.48957 -1.49094e-18)
(1.36256 6.24305 3.03779e-17)
(3.62061 0.824683 1.38303e-18)
(0.268287 1.81571 1.42368e-17)
(1.01117 5.47596 1.02864e-17)
(1.99199 1.11068 2.30126e-17)
(0.0684568 -0.0168193 2.64694e-18)
(0.283263 0.711169 1.45648e-17)
(-0.269696 -0.18282 6.9552e-18)
(-0.695727 0.12177 7.43851e-18)
(0.457959 -0.175878 4.40717e-18)
(0.992233 0.822117 -3.00117e-17)
(1.33163 -2.85315 1.32817e-17)
(-0.218447 -0.820449 8.4094e-18)
(0.640799 0.374681 6.15704e-18)
(-1.37679 0.76262 1.02512e-17)
(1.09504 5.93495 1.2625e-17)
(-0.172804 -0.923981 2.40506e-17)
(-0.371803 -0.464935 5.66278e-18)
(1.16089 -2.097 -1.61633e-17)
(5.17017 3.40964 2.50051e-17)
(0.500304 -3.05002 1.43235e-17)
(-0.502056 -0.468739 7.30153e-18)
(1.94772 -2.64226 2.30657e-17)
(0.428132 3.55366 8.58035e-18)
(0.33018 0.133119 1.01441e-17)
(1.03082 6.83039 1.66078e-17)
(0.182786 -3.74191 -2.70731e-17)
(0.655794 7.6905 2.54714e-17)
(-0.585981 -0.206468 5.61748e-18)
(-1.30085 -0.661497 1.49604e-17)
(2.91118 -3.36715 2.0561e-17)
(-0.146239 -0.0630431 8.8412e-18)
(-0.339319 -0.60285 7.30353e-18)
(1.23621 3.8549 4.08699e-17)
(5.1682 2.83465 5.21678e-18)
(0.861898 7.10508 1.80475e-17)
(0.566093 -0.256982 3.26456e-18)
(-0.337585 0.246949 6.53613e-18)
(2.41692 -2.82249 9.63187e-18)
(-1.11604 1.10743 2.42077e-18)
(1.24532 -2.82001 7.17808e-18)
(3.77098 4.19607 2.14221e-17)
(0.18155 -0.507657 3.96487e-18)
(0.314877 0.144227 3.04894e-18)
(-0.00441503 0.117271 1.76811e-17)
(0.545356 -0.207011 1.58978e-18)
(0.127943 0.0368537 1.05919e-17)
(3.16795 -3.42257 3.09228e-17)
(0.448495 7.87608 2.76023e-17)
(2.24591 1.23671 -9.69149e-19)
(0.809959 7.29619 2.8586e-17)
(0.219153 0.642929 1.55916e-17)
(0.396791 -0.242704 6.50107e-18)
(1.90226 -2.69232 1.11588e-17)
(4.39748 3.90586 1.01924e-17)
(4.0308 1.05853 8.6905e-19)
(-0.349467 -0.192395 5.63488e-18)
(5.68737 2.8603 2.60205e-17)
(2.29502 2.53826 5.43793e-18)
(0.817666 -2.76686 -2.42131e-17)
(-0.819572 -0.857232 6.76449e-18)
(-1.05853 1.40612 3.71196e-18)
(0.0916626 -0.661671 5.3465e-18)
(2.12827 -0.671654 2.19714e-17)
(-0.563416 -0.250518 5.34774e-18)
(2.79773 1.2087 -1.14663e-17)
(-0.396505 -0.50297 6.65995e-18)
(0.896405 5.57346 3.69285e-17)
(3.2648 2.53722 4.46204e-18)
(-1.56873 -0.516704 1.01507e-17)
(0.503542 -0.200978 4.59175e-18)
(6.72567 4.25933 -1.33697e-19)
(2.62204 -3.6947 4.10995e-17)
(1.01375 -2.82725 -3.78329e-18)
(4.80278 3.18369 2.51811e-17)
(-0.16406 -0.684861 7.69751e-18)
(5.08106 3.21891 1.00709e-17)
(0.333653 -3.91583 7.31261e-18)
(-0.486323 0.00817381 2.82838e-18)
(0.840423 4.15237 4.74671e-17)
(2.3455 2.92801 4.89926e-18)
(-0.272758 -0.168646 5.84287e-18)
(1.10439 2.20405 3.03657e-17)
(-0.0613223 1.00971 1.55769e-17)
(2.19354 0.867067 -1.22743e-17)
(-0.193731 0.737239 1.49728e-17)
(-0.191684 -0.126343 4.25479e-18)
(0.40234 -0.1785 5.89891e-18)
(-0.054668 0.491608 1.50985e-17)
(0.517533 0.049425 -2.34452e-17)
(0.0228468 2.2385 1.52798e-17)
(2.25325 -3.58794 4.23085e-17)
(0.504157 4.98583 8.61799e-18)
(0.622785 5.99501 1.19826e-17)
(-0.401158 -0.324506 7.02408e-18)
(0.0503465 -0.094722 1.07045e-17)
(-1.03154 2.52623 1.87033e-17)
(1.55252 -2.04091 1.34096e-17)
(-0.173355 -0.600331 7.61976e-18)
(0.434607 -1.99791 1.28614e-17)
(0.131626 2.91887 1.33278e-17)
(-0.439133 -1.21058 1.79234e-17)
(0.78052 0.288219 5.15962e-18)
(0.567739 6.38092 1.47051e-17)
(0.535995 1.48788 3.5335e-17)
(3.61016 2.97882 5.27706e-18)
(-0.458725 -0.214321 4.7361e-18)
(0.247069 7.13107 1.79126e-17)
(0.538679 0.406135 1.35309e-17)
(0.680644 -3.08825 -2.84837e-17)
(0.056052 -0.412418 9.48688e-18)
(-0.292719 -0.0564268 6.76779e-18)
(-0.0500854 -0.351818 1.37749e-17)
(-0.199308 0.150293 4.74283e-18)
(0.462743 -4.28978 -1.59551e-17)
(1.38041 -3.73315 3.39486e-17)
(-0.00300966 7.38213 2.15862e-17)
(2.15227 -1.60022 1.90127e-17)
(-0.057412 -0.641827 6.52286e-18)
(0.319823 2.66413 3.47811e-17)
(0.257766 0.177008 5.55121e-18)
(-0.41212 -0.260475 8.35482e-18)
(-0.263775 -0.447054 7.09777e-18)
(0.630719 -3.36707 -1.71916e-17)
(0.0385684 -0.384903 3.27375e-18)
(3.04557 1.06732 -5.92211e-18)
(1.50636 -1.92712 1.27718e-17)
(1.04517 -3.67128 2.29064e-17)
(5.33621 3.16561 1.00341e-17)
(1.05199 0.627987 2.61938e-17)
(0.198559 -0.0548698 4.87142e-18)
(-0.604781 -0.264771 4.44295e-18)
(1.87364 -3.98226 1.20157e-17)
(1.35863 -3.91301 7.1355e-18)
(-0.425782 6.06259 3.36961e-17)
(-0.399544 7.70775 2.84441e-17)
(-0.0226133 -0.656705 6.85328e-18)
(5.01152 3.61964 1.61677e-17)
(-0.399503 8.03 2.61534e-17)
(0.217825 0.00436501 -1.76384e-18)
(2.31551 -4.43499 2.9625e-17)
(-0.220669 -0.114697 4.13166e-18)
(4.59511 3.45949 3.08849e-17)
(4.5868 4.37645 1.92077e-17)
(3.36872 2.3331 1.70556e-17)
(-0.353527 0.159807 8.82079e-18)
(0.746042 0.18547 8.03281e-18)
(0.957405 -3.30322 9.75576e-18)
(-0.554409 -0.183793 3.26476e-18)
(0.372832 -4.12049 -3.37835e-17)
(-0.274069 -0.381584 7.1437e-18)
(-0.0613634 -0.578396 6.88839e-18)
(0.512368 -4.09811 4.98603e-18)
(-0.281978 0.599292 8.20783e-18)
(-0.316177 0.899206 1.39904e-17)
(-1.16711 -0.477879 1.06912e-17)
(0.542496 -0.161935 -6.34161e-19)
(-0.273274 1.4277 1.70036e-17)
(0.0565314 4.96309 1.0382e-17)
(-0.368411 -0.164043 7.35773e-18)
(2.43241 -4.45833 3.92828e-17)
(-0.200322 -0.0446826 6.80554e-18)
(0.497538 0.225964 5.68551e-18)
(-0.0263877 -0.0901677 4.31244e-18)
(0.067348 5.56021 8.36993e-18)
(0.107907 -0.0440674 -2.27004e-18)
(-0.186146 -0.463028 6.32585e-18)
(2.10072 3.09293 4.45952e-18)
(0.0294666 6.4037 1.35365e-17)
(0.395222 0.321266 1.14209e-17)
(0.967324 -3.22518 1.10201e-17)
(-0.0499759 -0.0614373 2.02239e-17)
(0.165183 -4.78466 -3.07519e-17)
(-0.66999 3.6381 5.26055e-17)
(0.528396 -3.60949 -2.70186e-17)
(-0.316884 -0.118954 3.01061e-18)
(0.334809 0.938775 3.12597e-17)
(0.120675 -0.384583 1.28054e-17)
(-0.174227 0.0373053 -7.6261e-19)
(0.546425 -0.10914 3.94137e-18)
(-1.28672 -0.836599 4.55416e-18)
(1.75572 -4.56601 4.54664e-17)
(-0.145309 6.71997 1.56548e-17)
(-0.46895 0.0581702 5.93264e-18)
(3.54953 1.7561 1.45863e-17)
(-0.0983715 -0.514435 7.03892e-18)
(-1.00365 7.35069 2.94446e-17)
(-0.136069 -0.614332 5.86809e-18)
(-0.973146 8.04991 2.87546e-17)
(-0.166654 2.72255 1.3671e-17)
(-1.21601 5.4558 3.4245e-17)
(0.103848 0.379392 9.49642e-18)
(0.474208 -0.147481 -1.08736e-18)
(-0.624989 7.34489 1.94867e-17)
(0.316373 -4.24178 -8.37099e-18)
(-0.0549689 0.00326931 2.83461e-18)
(3.29015 2.26235 1.05548e-17)
(0.0486395 -0.426193 -3.5774e-17)
(-0.303364 -0.19091 1.04839e-17)
(-0.287724 -0.145202 3.40874e-18)
(0.0210291 0.0916233 8.46117e-18)
(1.38237 -4.49783 4.37195e-17)
(-0.0350829 -0.689368 5.60486e-18)
(-1.05243 2.03901 2.47762e-17)
(5.56379 3.18482 1.84033e-17)
(5.35218 2.71921 4.3116e-18)
(6.29476 3.49984 8.15303e-18)
(3.39425 3.27957 5.11417e-18)
(0.634403 -5.19223 -7.89889e-18)
(0.598789 -0.121001 1.99715e-18)
(0.0170767 -0.0387278 -5.94942e-20)
(-1.55714 4.15416 4.44167e-17)
(0.372532 -5.85274 -1.0607e-17)
(-1.02225 7.57931 2.21427e-17)
(-0.719781 -2.28272 1.52802e-17)
(0.61257 -4.69388 2.8998e-17)
(0.0472109 -0.630866 5.76958e-18)
(-0.668218 -0.0265018 -5.06934e-19)
(-0.524266 -0.345671 4.43353e-18)
(-0.143704 -0.319458 7.63633e-18)
(-0.185754 -0.13339 3.85809e-18)
(-0.640126 0.554757 7.89227e-18)
(-1.05816 2.25771 4.20264e-17)
(-0.659674 0.0938863 6.41183e-18)
(1.09109 0.25176 -1.07948e-17)
(-0.376013 5.50198 1.09802e-17)
(-1.22839 -0.418467 9.73302e-18)
(0.969858 -4.88667 1.10394e-17)
(-0.285879 -0.142081 1.03269e-17)
(-0.410427 -0.568185 4.20449e-18)
(-0.406052 0.0927434 1.92295e-18)
(-0.525907 4.3098 1.55407e-17)
(-0.614238 0.679001 5.30778e-18)
(0.32365 -4.55726 -3.53419e-17)
(5.34096 3.79379 2.23871e-17)
(-1.24551 0.843033 1.12926e-17)
(5.11701 1.94777 6.2194e-18)
(0.805266 -6.46861 -1.25117e-17)
(0.293487 -0.471574 1.50415e-17)
(-0.560363 1.2681 1.35182e-17)
(0.439515 -4.36252 3.72242e-18)
(5.54169 2.71064 8.07581e-18)
(-0.69776 0.185337 1.23633e-19)
(0.570062 0.12454 1.2139e-17)
(0.40336 -4.43034 3.87439e-18)
(-0.511586 6.06842 1.01529e-17)
(0.0757477 -0.405925 6.67492e-18)
(0.356076 -4.86284 1.70208e-17)
(1.44551 -5.0124 2.25596e-17)
(0.514709 -0.376006 9.579e-19)
(-0.563389 1.90928 1.39249e-17)
(0.739292 0.11319 8.32258e-18)
(-0.517374 -0.328177 3.88582e-18)
(-1.07114 -1.08789 5.70364e-18)
(-0.235416 -0.773093 4.32773e-18)
(1.06616 -4.7154 1.09628e-18)
(0.0777497 -4.98196 -2.73027e-17)
(0.972825 -2.48467 1.12616e-17)
(4.95886 0.254024 6.96681e-18)
(-1.85227 2.57681 5.13438e-17)
(-0.71941 6.63303 1.38403e-17)
(-0.144752 -0.247997 9.16651e-18)
(-0.761977 -5.32287 -2.52763e-17)
(1.75415 -5.31945 4.11224e-17)
(2.95807 0.679691 1.14076e-17)
(0.305279 -0.242617 6.836e-18)
(0.345162 0.16604 8.18427e-18)
(-0.142476 0.20979 2.24399e-18)
(-2.73185 4.98144 3.04789e-17)
(-0.0401973 -0.183274 3.42844e-18)
(-0.0988867 -0.768392 4.35488e-18)
(0.026149 -0.0786416 7.09765e-18)
(-0.0407068 0.172506 8.18733e-18)
(3.85221 3.76602 8.19288e-18)
(0.70886 -3.86776 7.0256e-18)
(-0.102994 -0.128078 4.24609e-18)
(-1.9047 7.93912 2.41971e-17)
(1.69347 -5.30621 4.47688e-17)
(-0.0017769 -0.332593 7.08071e-18)
(-2.36996 7.52386 2.69664e-17)
(-1.09179 6.92043 1.5342e-17)
(-0.160695 0.175215 3.15378e-18)
(-1.03168 0.611453 3.80014e-17)
(-0.0920287 -5.47366 -9.54181e-18)
(-0.0110839 0.0755606 1.06312e-17)
(-0.871589 -0.264002 5.83812e-18)
(0.131594 -0.618567 4.38711e-18)
(-0.793059 -0.594925 4.28296e-18)
(0.198911 -5.11038 -3.66746e-17)
(-3.53121 5.46841 2.75303e-17)
(0.969429 -5.30409 4.25569e-17)
(0.0160255 0.162071 -6.67286e-19)
(3.45988 1.90431 -3.24404e-18)
(0.424768 -0.0524 5.25835e-18)
(-0.851135 0.33774 1.09299e-17)
(-0.510843 -0.848045 3.2256e-18)
(0.0823522 0.05313 -6.40092e-19)
(0.439696 0.101299 1.0046e-17)
(-0.887549 0.899272 6.11624e-18)
(0.223579 -0.501846 6.14065e-18)
(-3.05953 3.76675 4.24228e-17)
(0.644256 -0.111671 1.05072e-17)
(5.57313 3.61546 2.49212e-17)
(-1.68787 7.41434 1.80252e-17)
(-0.222449 0.1244 6.29339e-18)
(0.0533228 -5.42797 -3.11522e-17)
(-1.76654 1.00535 4.48085e-17)
(-0.762706 3.98575 1.86889e-17)
(0.166288 0.153662 8.82627e-18)
(-0.170613 -0.143893 1.2323e-17)
(0.539991 -0.139725 -1.02959e-18)
(0.335222 -6.85635 -2.91253e-17)
(-3.1398 7.02815 2.68233e-17)
(0.529832 -3.53304 7.77642e-18)
(-0.914368 4.68768 1.78106e-17)
(0.270926 -6.14871 -1.51782e-17)
(-0.537349 0.420593 5.37968e-18)
(-0.862839 5.78292 1.14462e-17)
(0.426212 -0.181559 6.25426e-19)
(-0.368473 -0.912617 3.27397e-18)
(-0.0640187 0.190637 4.30912e-18)
(-0.709153 0.601438 1.1675e-18)
(0.659542 -5.40381 3.45444e-17)
(0.475328 0.12273 9.45162e-18)
(-0.709912 0.642526 2.2133e-18)
(5.06249 4.35998 2.45603e-17)
(-0.0480586 -0.267258 9.68135e-18)
(0.34513 -6.11466 -8.88055e-18)
(-0.166 -5.81084 -1.98007e-17)
(-0.725728 0.993815 2.26042e-18)
(0.0469676 -0.0720037 3.18434e-18)
(-0.962515 1.60661 1.5759e-17)
(1.32101 -3.45717 3.34946e-18)
(0.142824 0.0484971 1.03335e-17)
(-3.79509 3.94454 3.21379e-17)
(0.350937 -7.08257 -1.30717e-17)
(-1.08738 0.990751 3.17034e-17)
(-0.0680066 -0.837331 3.44045e-18)
(-1.20077 6.25642 1.0728e-17)
(3.84599 1.9201 -4.04534e-18)
(-2.32898 7.49372 1.92491e-17)
(-2.73561 7.7427 2.36265e-17)
(0.172327 -0.292596 7.34941e-18)
(0.0470135 -5.80068 1.0701e-17)
(0.0277405 0.159283 1.97278e-17)
(-1.28269 -3.29925 9.88127e-18)
(-0.0543476 -5.24959 1.66065e-18)
(0.0245354 -5.30638 7.03556e-18)
(0.676559 -5.69957 2.86514e-17)
(-3.34088 2.10637 4.84052e-17)
(-0.359857 0.0849914 5.38827e-18)
(-0.955049 -0.81046 2.92676e-17)
(0.124997 0.509945 6.63745e-18)
(0.617299 -6.69417 -1.98382e-17)
(-0.0499155 -0.0841374 1.40382e-17)
(0.667975 -0.0753957 1.92058e-18)
(-0.84165 -0.982648 4.40361e-18)
(0.101605 -0.720157 4.0458e-18)
(0.236602 -5.00732 6.59007e-19)
(-0.141329 0.0130748 6.18216e-18)
(-1.04214 -0.149391 1.36757e-17)
(0.350674 -4.88799 2.96529e-19)
(-1.0076 -0.573992 9.11612e-18)
(0.709805 -5.8048 -1.64631e-18)
(1.06883 -5.81981 3.61903e-17)
(0.227212 -0.260737 3.56678e-18)
(0.71347 -0.118664 1.55711e-18)
(-1.60209 6.62177 1.1765e-17)
(-0.458681 0.346291 1.6933e-17)
(-0.691816 -1.08297 3.07202e-18)
(-0.0989937 -0.289443 1.1125e-17)
(0.0948559 -6.80606 -2.89123e-17)
(-0.816807 -6.68141 -2.75729e-17)
(-1.75392 -0.412079 4.12546e-17)
(0.362827 -0.430653 6.34786e-18)
(0.0201867 -0.0291419 1.58083e-19)
(1.22275 -6.104 4.06305e-17)