/*--------------------------------*- C++ -*----------------------------------*\
  =========                 |
  \\      /  F ield         | OpenFOAM: The Open Source CFD Toolbox
   \\    /   O peration     | Website:  https://openfoam.org
    \\  /    A nd           | Version:  8
     \\/     M anipulation  |
\*---------------------------------------------------------------------------*/
FoamFile
{
    version     2.0;
    format      ascii;
    class       surfaceScalarField;
    location    "0.4";
    object      alphaPhi0.water;
}
// * * * * * * * * * * * * * * * * * * * * * * * * * * * * * * * * * * * * * //

dimensions      [0 3 -1 0 0 0 0];

internalField   nonuniform List<scalar> 
2805
(
6.67823e-08
-3.17029e-07
-3.66078e-07
4.86006e-08
2.14513e-10
-4.11012e-07
1.0918e-10
9.38751e-08
-7.97884e-07
-1.92683e-11
5.29267e-09
3.37099e-08
-2.16301e-06
1.51189e-06
-1.09316e-06
-1.02078e-12
-1.58079e-07
4.24653e-07
-1.26339e-07
-1.42539e-08
-1.56988e-11
1.15284e-10
-3.61432e-07
1.14767e-07
-1.28586e-10
-2.69055e-07
0.00167237
-0.0013673
-0.000503538
-1.24997e-09
8.72971e-10
-9.5005e-07
1.19411e-06
-3.06993e-06
1.83263e-06
-2.57018e-06
0.000919159
0.000660025
-2.92042e-12
-1.58078e-09
-1.8472e-05
-1.03921e-05
-7.7045e-12
1.36908e-11
0.00150403
0.000366375
-0.00187159
4.79476e-05
2.27087e-05
-0.000454133
-3.89399e-07
4.40144e-07
-4.93063e-06
-6.94388e-12
-9.56644e-14
-8.65052e-05
2.23959e-06
-7.39567e-05
0.000188738
0.000124442
-1.70777e-05
-5.58951e-05
1.00243e-11
9.55394e-11
-1.57804e-10
0
5.11513e-09
-3.88698e-09
-5.30356e-12
-4.99789e-14
5.27439e-12
-0.000102677
3.68841e-05
-0.000472482
9.51046e-05
-1.06924e-05
2.85235e-05
-0.000105387
0.000845775
-7.17702e-05
1.94945e-11
0
7.18567e-07
1.24582e-08
-0.000303346
-0.000114414
-2.81748e-09
1.05809e-09
7.7728e-12
-2.4489e-11
0.000400582
4.96395e-05
-0.000301123
0.00161972
-0.00013013
0.000282024
-1.20557e-07
-4.80583e-06
-1.76572e-10
2.17814e-10
-5.68258e-11
-5.17611e-09
2.75885e-05
-1.29488e-05
2.40213e-06
-8.5028e-13
-2.40217e-06
4.52253e-12
-3.26665e-13
-3.51076e-13
0.000755032
-0.00183103
0.00107599
-0.00144167
0.00110497
0.000336696
8.44582e-13
-3.61516e-15
-1.00256e-12
0.000251601
-9.0593e-06
3.59211e-07
-1.70742e-14
2.93038e-13
-5.15737e-05
-1.80149e-05
6.26718e-05
1.63953e-12
-6.51158e-06
2.94547e-10
-1.01416e-10
6.01325e-10
-3.9837e-05
5.947e-05
-9.20834e-07
-1.08117e-07
1.25147e-09
5.96299e-07
-2.13187e-07
3.44054e-10
-1.0119e-07
-5.78854e-11
4.13062e-11
1.28082e-11
2.06328e-16
-1.1266e-14
-2.76214e-13
2.54862e-13
-7.46759e-07
3.479e-09
3.81815e-07
3.88118e-07
-7.61882e-07
-6.268e-11
-3.55036e-10
3.60235e-10
5.44252e-05
-9.41139e-05
4.82662e-05
0
1.12777e-07
-5.88118e-11
-1.98643e-13
9.11811e-14
-1.49658e-14
0
-1.86689e-07
1.13838e-07
2.44878e-08
1.62056e-12
-1.61534e-12
-1.2259e-15
8.1361e-14
-1.15647e-12
1.26151e-12
-5.98332e-11
9.68283e-12
-2.40911e-12
1.87051e-12
3.36679e-05
-4.93792e-05
-5.02516e-11
3.8182e-11
5.57214e-12
0.000726599
-0.000361738
-5.03483e-05
1.08175e-08
2.57753e-07
-3.84432e-12
2.6006e-07
-9.28983e-08
-0.000686634
0.000120457
-6.01223e-05
-1.9387e-09
-7.39257e-07
-2.09002e-05
5.60849e-05
5.47685e-06
6.14607e-05
-8.79913e-05
3.98599e-05
-9.03537e-05
0.00021252
-1.04608e-17
1.62042e-17
8.75927e-13
6.11287e-12
1.80501e-11
-2.62688e-13
-2.25346e-05
2.79329e-05
2.59471e-06
-2.83922e-06
-2.85395e-08
2.95139e-08
-1.70866e-10
0.000635771
-8.7992e-06
-5.94296e-06
7.4011e-05
-2.78549e-05
9.45678e-05
-2.24618e-05
-1.38175e-12
9.8246e-13
8.62063e-13
-2.32863e-09
-5.44013e-10
3.02471e-09
7.39538e-05
3.2719e-05
0
4.52433e-05
-5.23318e-10
-4.76375e-13
5.88126e-13
5.18033e-10
-5.82234e-10
0
3.15331e-12
-1.03402e-11
1.84453e-11
-5.97531e-13
-1.6857e-13
0.000133065
-0.000496344
-5.0919e-07
4.8619e-08
-2.39992e-06
9.32752e-12
-1.64032e-10
7.03023e-11
-1.94062e-12
0.000251296
-0.000346852
-0.00243041
0.00232471
0.000105699
-0.000766624
2.67338e-05
-3.65303e-08
6.02653e-08
4.36587e-05
2.67851e-05
-4.37425e-05
2.05696e-07
-1.41354e-07
9.3777e-16
-1.59434e-15
-6.7976e-12
-0.000735394
0.00195839
-0.001223
1.80653e-13
-6.74882e-13
2.60141e-08
-1.86568e-06
9.16708e-07
-9.85507e-10
-4.47526e-11
0.000886865
5.52671e-06
-1.18422e-09
1.1481e-09
-1.70313e-10
1.88237e-10
-2.0615e-10
2.89093e-10
-1.02895e-12
-7.13476e-09
6.04159e-05
-2.11399e-05
-6.453e-05
5.76712e-05
-2.39406e-06
1.9635e-06
-0.00121318
0.000477786
2.64529e-05
2.78839e-05
1.74486e-07
-1.24592e-06
2.20722e-13
1.42976e-12
2.51635e-05
3.12875e-05
-0.00243041
-1.02616e-05
5.91933e-05
-1.02698e-06
1.94276e-07
-7.96198e-07
-1.25715e-06
2.96994e-05
0.00208509
0.00023962
-3.99712e-10
-8.04473e-13
9.68537e-13
-4.60761e-12
2.07752e-05
-2.9261e-05
-5.95484e-13
-7.69428e-14
-3.3847e-05
-2.31729e-07
-0.00247328
4.28707e-05
-0.00016352
0.000445473
-5.62207e-05
-6.16252e-09
2.10771e-05
-2.26721e-09
0.000698954
0.00138613
-3.69978e-13
-1.25652e-12
-1.18593e-09
2.00729e-08
3.06013e-06
-1.38306e-06
2.23326e-06
-7.67411e-13
-1.49201e-13
0.000124981
1.55109e-12
0.000119321
-2.40583e-06
-3.34433e-05
3.94761e-12
1.40838e-05
-9.98771e-09
0
4.62431e-09
-2.44922e-06
2.28575e-06
5.99266e-05
-3.49887e-06
-5.6812e-05
-1.03826e-07
1.32392e-06
-4.40145e-13
1.47141e-13
1.80609e-13
4.17763e-06
6.07001e-05
-0.000555492
-0.00127553
1.86718e-12
-4.02097e-11
0.000184175
-0.000125627
-1.38907e-05
8.07988e-05
-6.74564e-05
-1.06118e-12
-2.17253e-13
1.16045e-13
9.71009e-06
3.25899e-06
-4.40392e-08
4.24581e-13
-1.16563e-12
-8.95947e-08
1.6813e-05
-1.71433e-07
-0.00247328
-2.35743e-05
8.8381e-05
-5.90159e-05
-6.00798e-06
0.000251504
6.47392e-05
-4.83763e-05
0.000426235
-0.000170122
-0.000177566
3.09668e-09
-9.86658e-09
1.68066e-08
-6.15259e-08
4.63076e-05
-1.76914e-08
3.02908e-07
0.000359958
-0.000177667
0.000131428
1.51346e-07
-0.0025167
4.3425e-05
1.76434e-09
2.16653e-11
-4.50819e-11
4.53677e-11
9.15716e-07
1.57586e-05
5.75411e-05
1.51379e-12
2.29516e-08
1.50135e-07
1.53766e-06
-1.7848e-10
-6.48964e-16
-4.80172e-16
4.17294e-05
-4.50866e-12
1.64393e-12
-7.00196e-10
7.46739e-10
-1.06205e-09
3.11287e-05
6.31366e-05
-1.32992e-12
1.74094e-12
2.70169e-14
-1.65572e-14
2.60448e-13
1.77493e-06
-1.2921e-06
0.000402717
2.53161e-05
-2.90858e-05
1.34638e-06
3.03202e-06
-2.47224e-07
-2.33177e-06
0.00014952
9.54677e-05
-5.8432e-05
0.000173104
-1.06895e-11
-1.20447e-11
-1.66648e-09
1.56665e-09
1.54849e-07
-1.5565e-07
-0.0025167
-3.61147e-10
-1.05381e-07
8.36903e-05
3.09967e-05
-2.68701e-11
1.35648e-10
0.000302884
5.63003e-05
1.36784e-05
6.34974e-06
0.00034633
9.3498e-10
-1.63062e-09
1.96445e-11
-6.12723e-13
-9.47499e-14
5.33936e-10
-0.00167945
-0.000837253
4.0922e-07
8.8071e-07
-8.42893e-09
-3.22709e-13
-7.28408e-13
-6.17101e-10
-7.07322e-11
-0.000106739
0.000261871
-0.000237677
0.000274052
8.82384e-05
9.86977e-06
-6.8947e-10
7.48137e-05
0
0.000114081
3.02281e-05
8.32673e-13
-1.89329e-05
9.7889e-06
0
-9.25838e-15
0.000742857
-0.00091135
2.64787e-16
-1.48807e-13
-1.61343e-06
7.81262e-05
0.000619627
-0.000226934
1.14047e-07
-2.23947e-05
6.45758e-05
6.74758e-05
-0.000100612
1.83281e-06
1.56934e-06
-2.35932e-15
-2.40522e-12
-1.96191e-10
1.48357e-05
3.77744e-05
1.79654e-07
0.000320562
6.95484e-05
-0.00167945
-3.3303e-07
1.24347e-06
-2.48964e-06
-1.65763e-06
-0.000364348
3.09635e-13
-1.55018e-12
-0.00195839
0.000278941
-1.03154e-08
1.31176e-08
-8.79401e-06
1.81718e-06
-2.52587e-06
2.80632e-10
-4.95903e-09
4.69708e-06
-3.56258e-06
-6.85542e-12
-4.87513e-12
-0.000149251
3.82361e-06
0.000468162
-1.09673e-07
1.08937e-07
0.000809404
-0.000507282
-2.50765e-16
-7.60459e-11
-7.84142e-07
9.13577e-14
-1.09484e-12
-4.28179e-13
2.29525e-08
5.25317e-09
-6.45624e-10
3.96815e-05
3.75986e-05
-2.2971e-05
0.000888899
-0.000143505
-2.02499e-14
1.11848e-13
0.000448806
-7.52113e-11
0.000167487
2.24898e-14
-2.53822e-13
1.46449e-07
1.11756e-06
0
5.99126e-07
-7.27851e-07
-1.29488e-12
7.13626e-05
2.22782e-05
-5.5194e-10
2.43053e-08
6.51254e-05
9.59043e-12
0.000575741
3.27574e-05
1.56329e-06
0.000177862
-1.25834e-05
2.77741e-05
-3.95621e-05
1.99495e-15
-8.00896e-15
1.17463e-14
0.000103944
0.00026919
2.48116e-13
-2.29505e-10
2.29621e-10
0.000402113
2.68404e-07
9.60858e-08
1.53388e-08
-6.88332e-08
-6.10044e-10
6.63497e-16
-8.2603e-16
8.98396e-07
5.00569e-06
1.71271e-05
2.18694e-06
-1.93665e-06
2.86905e-07
-1.2433e-07
-8.98053e-07
-8.63417e-15
1.07374e-05
2.9964e-10
1.25489e-06
0.000509362
0.000297914
-2.61759e-10
-1.84186e-08
1.37126e-08
1.05965e-07
1.09475e-07
1.05643e-08
2.22698e-15
1.27784e-15
9.72252e-05
-7.63782e-05
-0.000492825
0.000436772
1.00738e-12
-5.78503e-12
0.00105351
5.54058e-15
-3.14561e-15
-0.000773368
0.00166223
-0.000888864
-1.22194e-09
2.21264e-09
0.000287626
8.34705e-05
-5.63332e-17
3.44807e-18
1.91824e-06
-8.09233e-07
-5.19758e-11
-3.72806e-11
-8.05629e-14
6.61539e-07
1.89101e-05
2.30999e-06
7.25047e-07
9.34998e-08
0.000401957
-3.55639e-05
3.45916e-08
2.59085e-07
-3.3226e-08
5.93317e-15
-2.64363e-14
1.02899e-05
0.000272142
-4.09456e-09
2.94619e-09
0.000392299
-4.40355e-05
1.29339e-07
2.54809e-06
-2.88796e-10
-2.42592e-06
0
1.76741e-06
1.4319e-08
1.11631e-07
4.12285e-08
-1.72221e-16
6.57192e-07
2.72403e-05
0.000410998
-1.17434e-14
1.73405e-14
-8.20483e-15
4.70333e-06
0.000294346
-1.32783e-09
0
1.17538e-08
3.92163e-05
2.91264e-08
7.74023e-08
1.12299e-07
-2.79049e-08
0.000358432
-9.43325e-05
2.15092e-07
-4.16623e-11
-3.82622e-12
-4.90022e-08
-0.000607131
-0.000606049
2.50182e-16
-3.73574e-16
0.00107485
-0.000567912
4.13312e-06
0.000698954
5.67263e-06
1.5487e-05
3.45964e-13
-9.11555e-15
1.18207e-12
7.45106e-08
0.000232275
1.039e-06
4.85827e-06
1.06577e-10
-1.43895e-09
3.14784e-10
-1.3187e-09
9.09069e-10
5.89443e-08
-2.00177e-08
-3.3474e-13
3.37327e-13
1.31602e-15
-2.48823e-15
1.10168e-11
-1.19964e-10
-2.48298e-09
-4.38075e-08
2.03672e-08
8.14554e-13
-7.42478e-13
2.42499e-05
-1.80798e-05
-4.2136e-14
0.00054522
0
-9.89186e-07
1.61545e-14
-9.79413e-14
-3.58588e-13
-6.77279e-13
-8.04474e-09
-1.91091e-09
-1.27395e-09
6.76016e-08
0.000122275
-2.82356e-06
2.68173e-05
-1.03259e-15
2.30127e-05
1.06607e-12
1.21887e-11
-5.9916e-11
3.42979e-10
0.000104998
-1.62783e-14
0.000151926
-7.55431e-06
-0.000144173
-1.38611e-08
9.50014e-07
0.000477454
0.000388116
-8.55751e-05
1.38617e-05
0.000429576
3.88623e-05
1.34246e-07
-1.16888e-08
1.279e-06
-2.66074e-07
-2.59204e-16
2.43471e-06
2.37004e-07
4.51533e-06
-3.93108e-09
2.39182e-09
3.85105e-05
-1.41166e-12
1.42286e-10
0.000298341
1.81827e-05
8.99311e-15
-2.28263e-14
-2.76568e-10
-7.85407e-11
-6.49584e-13
1.35637e-13
2.91329e-06
2.11639e-07
7.6026e-15
-3.49852e-15
-2.02781e-08
1.70502e-07
7.85758e-05
-7.34423e-06
7.20644e-14
0.000674207
0.000396988
3.19894e-07
7.15439e-08
2.24602e-08
4.88446e-08
1.31881e-07
2.02558e-09
-4.9298e-11
7.53286e-05
-9.1993e-05
0
7.25701e-11
1.56714e-11
-1.20688e-11
-9.87815e-17
2.80996e-06
-1.57133e-06
-4.7346e-16
-1.01875e-09
9.58423e-10
-1.51134e-08
7.42355e-09
7.14586e-08
6.89738e-08
-5.69085e-07
1.20903e-08
-7.98277e-09
2.01769e-08
1.55716e-05
6.74291e-08
1.08927e-08
1.01883e-06
0.000117636
-9.7456e-07
2.93306e-10
-1.14694e-08
5.8153e-06
1.60516e-08
-1.67725e-12
8.10728e-06
1.00815e-06
5.78819e-13
-2.27068e-13
7.06984e-14
-4.96735e-13
2.41183e-15
-4.81673e-17
6.2812e-06
1.26192e-05
1.64504e-05
0.000159685
-4.79695e-05
0.000432593
-1.51716e-14
-2.91154e-09
0.000314724
0
8.74042e-07
0.00120437
-1.57789e-13
5.32181e-13
-1.3776e-10
-5.43569e-12
0.000380813
-8.12632e-05
0
6.13528e-10
2.52498e-14
-4.42092e-14
2.04213e-16
-4.05069e-16
-4.87557e-17
2.47111e-05
1.58723e-05
9.8007e-07
4.4781e-07
1.24352e-05
5.8042e-08
3.03686e-06
-2.40778e-09
-3.44595e-07
5.16627e-15
4.82793e-14
-1.60892e-10
6.30695e-16
-3.7464e-17
-1.77712e-16
7.32499e-06
3.16978e-05
3.81789e-13
-3.89848e-13
1.26182e-09
7.3232e-11
0.000292314
7.59082e-07
-9.42798e-09
8.65477e-15
7.78769e-15
-9.79472e-09
-1.68453e-08
7.26525e-12
6.46384e-09
0
0.000731333
-0.000188253
-9.40143e-07
6.52093e-06
2.14744e-09
-1.27701e-06
1.38214e-06
1.66024e-08
-1.53696e-07
7.49071e-13
5.20631e-09
0.000221705
-2.54159e-06
-6.33003e-11
2.54084e-12
-3.22099e-17
2.5247e-17
-1.02337e-16
1.02805e-06
-1.7334e-08
-7.08631e-12
4.16869e-09
-2.94399e-05
0.000176343
-1.81175e-06
1.88227e-06
-1.40298e-12
-8.78149e-15
3.76012e-08
7.87619e-06
2.0531e-07
-9.47889e-08
6.83703e-15
3.43398e-13
0.000402102
-2.88442e-08
2.92466e-10
8.83152e-11
2.13213e-14
-1.34533e-12
8.32989e-05
0.000349742
-2.84512e-09
4.77342e-07
3.63938e-15
1.7048e-06
2.16672e-05
0.000135424
0
-4.21735e-18
7.15087e-13
2.96297e-12
1.36084e-10
-5.87147e-18
1.77042e-08
0.000325445
2.03375e-05
6.93969e-06
2.82275e-15
-2.73631e-15
1.4887e-05
-4.93183e-07
1.03552e-09
1.01668e-09
0.000633994
4.0858e-14
-4.60591e-14
-4.40743e-12
-6.39429e-10
1.82973e-11
4.89538e-08
1.28196e-06
7.26833e-06
1.18982e-09
2.33472e-05
-9.66432e-15
7.0232e-16
-7.32301e-12
0
-1.29475e-14
7.98252e-17
-2.7371e-16
1.9755e-17
-4.58742e-17
1.64078e-07
6.19998e-06
-2.57752e-05
2.11754e-14
0.000131254
0.000103834
-2.20656e-15
-3.9875e-13
-1.76612e-15
1.59036e-05
-7.8596e-13
3.58035e-13
1.50746e-05
1.11167e-16
1.14087e-15
-1.75308e-16
-5.28204e-19
-3.6145e-12
4.51223e-07
6.83304e-07
-7.75847e-05
0.000342248
0
3.66672e-12
2.34264e-07
9.91791e-06
2.81638e-16
-3.544e-16
-1.91588e-06
1.56327e-06
2.82105e-19
1.13514e-18
1.91648e-06
3.67671e-12
5.92639e-11
-6.5061e-13
-1.67933e-12
1.36427e-09
3.58196e-06
1.40143e-05
0
5.38251e-05
0.000208016
4.8165e-16
-8.71448e-18
0.000322079
8.58664e-05
7.81482e-17
-2.34718e-16
-4.79438e-18
-7.852e-09
0
4.1398e-07
-5.71068e-09
1.00109e-08
-1.2769e-16
-9.29072e-12
9.03187e-12
7.13253e-06
2.87005e-05
6.06241e-11
3.45647e-11
-4.54584e-06
5.82784e-08
3.81383e-08
-1.06902e-10
-4.91776e-13
2.12973e-16
4.9697e-14
1.26209e-17
9.00035e-09
0.000512948
-1.78793e-08
7.62324e-10
-3.7503e-18
2.26536e-07
1.38528e-05
0
0
6.53865e-11
0.000347523
-1.30945e-05
5.51127e-13
-4.2734e-13
-1.61979e-10
6.14486e-15
8.70273e-09
-6.84792e-10
5.47425e-10
-2.38389e-12
3.26927e-16
9.84567e-16
2.33298e-05
6.28134e-07
3.7619e-11
7.09592e-06
-8.61619e-08
4.58714e-17
5.79341e-17
-3.85267e-18
4.96531e-05
3.27759e-12
1.62469e-08
-8.22711e-12
3.95929e-13
-3.86516e-13
1.23526e-17
-9.44812e-19
1.19214e-06
-1.47811e-05
5.37338e-10
1.50266e-06
-2.0356e-06
3.62046e-15
9.67157e-15
2.95452e-13
0
7.24195e-10
9.36224e-18
-1.36136e-17
7.42917e-06
-2.96364e-08
-1.63685e-10
-1.07308e-18
-1.37933e-09
-1.12876e-07
4.19759e-09
-4.06938e-13
3.39901e-15
1.06753e-11
9.26879e-12
-4.58961e-14
-6.18683e-16
-6.89934e-14
-7.21797e-06
2.27922e-05
2.09959e-05
-4.45716e-06
1.05705e-07
2.5916e-09
1.83101e-05
-1.19233e-06
0.00057211
-0.000186598
-0.000385512
1.67431e-16
-1.88623e-15
-4.29116e-13
2.54158e-06
-1.59066e-08
6.85401e-08
1.10284e-08
-3.07385e-09
2.54331e-17
-3.36469e-12
7.61445e-14
1.20074e-12
1.15771e-16
-1.32379e-17
3.51697e-12
-1.94853e-10
8.15882e-09
1.01227e-17
-1.70741e-18
1.07695e-17
3.05078e-18
-1.26726e-09
1.59403e-09
0.000537402
-2.3081e-15
8.67899e-17
-1.26296e-10
2.26536e-07
-1.2613e-13
4.50661e-05
-7.76458e-18
1.13528e-14
4.05899e-14
1.02974e-15
-2.11222e-14
1.98344e-07
0.000315606
0.000256504
0
5.65874e-06
2.4858e-06
-2.34296e-07
-6.10738e-20
2.46011e-18
-4.66711e-12
8.76307e-05
-7.96144e-05
0
-5.95703e-06
1.23632e-05
-1.3744e-18
-8.06074e-12
2.97124e-12
-1.40925e-07
-1.39957e-06
-9.75691e-05
-8.87032e-18
1.51953e-19
9.65344e-06
-1.0465e-05
9.31363e-19
-4.71114e-18
1.41638e-07
3.73964e-13
-0.00050188
0.000107838
0.0003943
1.05861e-10
1.51561e-05
2.98392e-07
2.81677e-06
-1.73376e-12
1.18399e-05
1.19382e-05
3.1469e-19
-1.2603e-16
1.26729e-06
-1.35194e-07
-1.2341e-19
-3.55991e-22
3.1395e-22
3.09549e-23
-4.93797e-08
-0.00043705
0.000475996
1.80609e-14
2.24811e-13
2.9698e-14
9.44865e-15
-1.383e-20
-7.5772e-09
6.30514e-08
-2.24143e-12
9.62377e-13
6.79526e-09
0.000113543
-0.000528721
0.000415366
2.87775e-08
-9.95564e-09
4.62962e-08
-3.70568e-19
6.58118e-05
-0.000672942
6.0135e-07
2.62697e-09
-2.81792e-09
7.09551e-08
1.87802e-10
-8.99906e-10
1.66408e-18
-2.59884e-20
2.07811e-10
4.00922e-16
1.66296e-13
7.97532e-06
1.51416e-05
1.68291e-15
2.92039e-12
-5.58279e-13
1.80072e-14
2.70792e-08
-1.17995e-09
-2.24063e-06
1.13136e-07
2.4968e-08
-0.000126566
0.000476455
2.43358e-07
-9.77316e-14
0
2.67709e-15
-2.25646e-15
3.04399e-14
1.7747e-06
-1.35794e-14
9.55214e-14
7.7552e-20
5.60485e-18
-6.83048e-18
-1.73208e-08
2.25559e-08
1.58986e-05
6.51647e-10
3.53102e-10
-3.41231e-10
-1.9063e-08
-9.3491e-12
0
1.06622e-13
-1.36601e-13
0.000452846
1.01605e-14
6.97936e-20
1.32632e-19
3.04388e-15
9.36698e-09
-1.76708e-12
3.35393e-11
-6.3767e-21
-1.30382e-17
-7.54402e-15
-1.58283e-17
1.27958e-14
-5.70955e-12
6.58113e-19
5.40893e-18
4.91352e-06
-7.7737e-08
4.13242e-07
-5.4014e-08
5.18079e-08
2.12244e-18
-2.66261e-18
5.41205e-12
-0.000117897
-7.8689e-07
1.51442e-07
-8.74089e-09
3.83951e-14
3.25665e-11
-3.61347e-11
6.15953e-18
-2.11285e-17
0.000326982
9.94031e-22
-5.33051e-19
3.87251e-17
2.68445e-16
-8.88648e-14
1.75967e-14
-2.49948e-06
1.3325e-05
-2.17508e-14
1.14325e-16
1.63275e-09
8.01971e-10
-1.0797e-09
1.15661e-20
1.03433e-21
6.56982e-07
-6.81887e-12
2.85671e-13
-5.80813e-17
-5.49354e-08
2.88163e-06
-1.12394e-19
1.11845e-13
1.10737e-05
-2.66671e-06
8.04574e-09
3.4215e-15
-1.67086e-07
1.32531e-08
5.39359e-19
-6.83002e-19
5.48061e-16
2.26589e-15
-3.12666e-08
0
-3.09768e-11
2.2195e-10
5.98114e-06
-4.95486e-18
-2.59587e-06
0
2.64045e-20
-3.91526e-20
0.0015288
-0.00152867
0
5.79766e-19
-8.51199e-22
2.24741e-09
-1.52931e-09
-3.96433e-07
2.07649e-06
0.000612765
-7.75218e-22
2.48444e-21
6.14141e-11
6.33636e-13
-1.05989e-05
1.72742e-06
3.19516e-20
-1.13272e-08
5.88144e-08
-7.61314e-09
-1.39392e-14
6.01493e-17
-2.10277e-18
-1.03665e-07
3.19861e-13
-3.40874e-13
2.9977e-22
1.30964e-15
8.92763e-15
-1.21564e-16
3.66509e-18
2.65964e-17
-3.31212e-17
8.72084e-07
-1.11734e-11
9.69908e-14
2.51468e-09
8.4936e-11
1.93489e-21
1.07075e-21
9.37718e-09
-7.02984e-14
-3.35183e-19
7.06168e-09
2.10823e-17
1.03331e-15
-1.19084e-21
2.95957e-18
-2.37799e-20
5.78774e-23
1.38858e-21
3.21849e-16
1.35381e-14
5.34055e-10
-1.39227e-18
2.09683e-19
9.7569e-05
-0.000784203
-7.22233e-12
-0.000117801
0.000342895
9.78781e-17
-9.65309e-08
-3.66602e-10
2.33525e-12
-1.49676e-11
-2.08332e-10
2.34134e-09
5.8331e-10
-1.42395e-10
4.07733e-09
2.00024e-07
-8.74211e-15
1.08384e-13
6.14791e-20
-3.81701e-20
-7.21742e-05
0.000369225
1.31371e-11
-1.10902e-11
2.85914e-15
-2.4229e-15
6.82112e-17
3.14808e-17
-8.00668e-17
-9.55703e-07
9.86157e-08
3.92473e-23
-2.05429e-08
8.22451e-10
-2.57778e-16
2.24986e-16
0
4.86949e-16
-3.75546e-19
7.14143e-21
-2.04333e-06
5.16674e-06
4.50027e-12
-2.24499e-13
1.79741e-14
-5.96111e-17
4.63581e-19
-1.42263e-08
2.68839e-09
-2.28921e-13
-3.24815e-07
-1.3033e-08
-3.48667e-20
4.18679e-19
-3.89578e-19
-3.13023e-22
8.50758e-09
-4.15428e-10
-6.29887e-19
9.59125e-09
1.27893e-15
3.73601e-17
-7.60414e-17
2.64504e-13
-1.08768e-08
-1.03382e-13
7.53194e-13
-5.41104e-05
0.000542018
-0.000487908
4.05314e-20
-1.58895e-19
1.9663e-17
-4.24723e-19
7.45013e-11
-3.46541e-10
1.66531e-15
-1.54594e-08
-2.29519e-09
9.38713e-09
1.57157e-22
3.98987e-23
1.816e-13
-1.65278e-13
1.0604e-05
-1.55529e-07
1.10145e-07
3.81595e-22
1.06005e-20
1.57099e-11
5.24434e-10
6.68769e-17
-5.19776e-17
-9.94277e-16
9.22125e-16
-2.19636e-22
2.84565e-13
1.67079e-21
-4.75558e-22
2.68356e-13
4.14996e-15
4.70157e-14
-2.00893e-17
7.32786e-19
-1.22832e-07
1.25273e-08
9.59966e-24
-1.20837e-24
2.94538e-11
2.32412e-20
6.15644e-19
1.84302e-07
-1.97145e-07
1.04857e-23
1.08232e-18
-1.15916e-07
1.66998e-08
0.000142265
0.000334197
9.51389e-21
-1.29654e-20
2.83477e-19
1.12974e-17
3.88269e-10
3.81562e-10
-3.41773e-19
5.57361e-21
4.60092e-10
-4.86686e-14
2.12375e-13
-7.49996e-13
4.97418e-12
-2.30926e-06
5.29298e-07
-2.13586e-21
3.34838e-17
-4.03679e-17
-4.0815e-18
7.5761e-17
-2.23614e-18
-1.56502e-08
-6.0465e-10
-8.31332e-06
2.2565e-12
-5.18589e-12
3.36689e-09
-1.9545e-08
2.04873e-07
-4.71379e-09
6.94795e-06
-1.54844e-09
4.78862e-10
1.25976e-24
1.85688e-25
-1.68116e-17
2.31129e-16
-1.00934e-08
1.71692e-08
4.88847e-09
-5.08595e-10
2.35378e-15
0.000568729
-0.000153343
-0.000557697
0.000440376
1.46848e-23
-1.08537e-06
2.50071e-11
-5.96385e-21
-7.8026e-17
6.42515e-16
1.25566e-21
-2.70473e-17
-1.35979e-24
9.88852e-25
1.60455e-07
6.06078e-09
0
6.73968e-19
6.9681e-12
-5.76361e-19
1.81484e-21
1.88329e-25
-2.95291e-09
5.00707e-20
-1.26619e-08
1.27008e-09
-4.29729e-14
1.00668e-16
-4.2002e-17
0.000356542
0.000212188
-6.27281e-16
4.67155e-15
-8.66387e-21
-1.70753e-08
1.13831e-09
5.41124e-13
-6.78197e-13
2.6612e-18
3.46602e-19
-1.08423e-18
1.7675e-13
-5.77985e-11
5.04749e-19
-4.80758e-12
3.2309e-11
4.01967e-15
-4.7909e-15
-1.32427e-11
1.97808e-12
1.50632e-16
0.000973309
-5.86864e-18
2.50176e-17
-1.58049e-17
7.60186e-14
-8.62803e-14
3.42622e-18
5.47369e-10
-2.05995e-11
-6.80956e-11
0.000416663
9.62908e-05
8.21362e-27
5.22008e-22
7.06666e-09
-3.03336e-22
4.21827e-24
-1.86501e-24
1.04332e-17
-6.09254e-14
0.000434884
4.13156e-14
8.88035e-26
8.92045e-26
-7.9739e-11
1.64537e-08
1.78057e-10
-4.56012e-10
-1.72046e-08
1.19453e-09
3.75694e-21
-4.33368e-21
-6.17849e-08
6.58054e-09
-1.50036e-09
8.53283e-15
1.89004e-17
-2.67269e-13
2.5632e-14
-1.7825e-19
1.81787e-20
-3.79224e-15
8.0473e-15
3.23499e-12
8.21389e-10
-2.88487e-11
-1.40076e-13
2.29763e-11
2.00212e-24
-2.61733e-26
3.48675e-10
-2.06944e-09
1.87999e-27
-3.59899e-23
9.18492e-22
-8.62384e-05
2.94225e-21
-9.72277e-18
-9.67649e-10
3.51122e-10
-3.21084e-11
2.47354e-11
-1.19481e-20
-2.1631e-21
1.12761e-23
-1.93899e-09
3.06343e-10
-1.20184e-23
2.36079e-16
-1.45212e-21
2.31062e-20
1.99052e-11
2.09876e-11
-9.69002e-15
4.44045e-23
-8.20211e-28
-3.48967e-09
3.97044e-10
-2.28985e-20
1.81956e-19
2.81112e-14
6.37448e-09
-8.36824e-09
2.61938e-13
-2.18574e-13
-1.77314e-19
5.65477e-19
-0.000121257
5.24294e-05
-1.7183e-24
-7.48247e-27
6.26528e-25
3.78508e-26
5.44807e-27
3.6551e-18
-2.72622e-18
4.73582e-13
-3.28597e-11
-1.83916e-11
1.51514e-12
-5.49303e-19
2.32022e-18
4.11633e-09
-7.12059e-09
7.72904e-09
-7.45643e-09
-4.19243e-09
4.41221e-08
-1.09571e-14
4.01883e-14
6.55045e-14
-3.19921e-12
9.16539e-13
-8.90112e-21
1.1048e-23
7.45601e-26
-2.18079e-18
2.75815e-17
-2.18044e-27
4.60579e-27
-6.64395e-13
1.0694e-12
-1.62407e-09
9.34187e-11
-7.12631e-19
4.12217e-20
6.4454e-19
2.22843e-27
2.72266e-30
4.60387e-09
-8.76946e-11
7.73646e-09
-7.07106e-09
-1.70703e-12
-2.35152e-23
7.27302e-09
-1.92207e-10
-3.73249e-22
7.55188e-23
2.33564e-16
8.27026e-17
-5.46867e-17
3.25717e-24
-3.2118e-11
1.8085e-12
2.66612e-10
3.67234e-28
-5.19387e-10
4.43255e-11
1.50877e-18
1.60619e-18
-8.8416e-19
6.78679e-06
1.29974e-14
-1.68123e-14
7.17905e-23
-3.17767e-14
-8.62297e-19
-3.8699e-11
1.97487e-10
-2.25316e-11
-1.03094e-10
2.36911e-11
1.0036e-21
7.76575e-28
-5.75141e-14
2.69395e-20
4.77251e-21
-6.68961e-21
1.82763e-24
-9.11983e-27
9.7286e-21
-4.17925e-12
2.9534e-28
1.54666e-29
7.68986e-30
-2.72435e-17
8.5118e-17
4.29287e-16
-4.39886e-16
-3.94168e-14
6.3234e-14
3.30203e-20
-4.60962e-08
3.50372e-08
0.000106227
2.82066e-05
-0.000151622
5.69387e-16
7.50343e-23
-3.10144e-12
-7.21394e-09
0
-1.67486e-13
-6.17561e-15
6.83003e-16
2.78883e-23
2.37357e-11
-7.2829e-13
0.000176545
0.000258348
5.35234e-13
-5.96425e-13
-9.2743e-11
3.99423e-16
-3.3355e-16
1.0459e-16
-9.61159e-05
-0.000169542
0.000282526
-1.08265e-23
1.75994e-26
1.08281e-13
8.4993e-19
-5.21293e-19
1.86193e-19
-3.5975e-15
-1.02704e-27
7.69616e-29
1.02714e-30
-6.61504e-27
1.24586e-10
5.19326e-14
-3.55388e-14
-0.000537578
0.000384238
-6.21872e-13
1.70889e-10
5.23918e-12
7.81153e-32
-4.0948e-11
6.52547e-12
6.29112e-29
1.36868e-12
-3.74139e-12
-1.26959e-27
1.50472e-25
7.26904e-27
-1.76499e-29
-5.03332e-17
1.35042e-16
-9.35013e-11
4.10886e-12
-1.81167e-12
3.80265e-14
1.62673e-16
-1.46325e-16
-1.50645e-25
5.4668e-24
-8.10659e-14
-9.71564e-05
0.000306297
-3.17896e-08
-4.93661e-11
5.48858e-12
0.000591805
-0.000525993
-3.81574e-15
-5.47574e-24
8.93364e-23
1.1046e-31
1.45806e-30
7.00635e-13
-3.36356e-12
3.72865e-13
9.24838e-15
1.26448e-27
-4.43878e-29
7.49866e-13
-9.49882e-16
-8.87009e-23
1.16311e-21
-5.9473e-14
3.75446e-15
0.000302061
-0.000356171
-2.66604e-20
7.41087e-11
-1.29272e-10
-1.14933e-21
5.06562e-21
1.51002e-13
-6.8786e-15
-2.37075e-23
7.16071e-27
-3.96563e-13
0.000180607
0.000558929
-5.16918e-12
6.58882e-13
1.3354e-18
9.80512e-19
-3.33458e-19
9.75691e-05
1.75775e-10
-3.56352e-12
-6.68762e-17
-4.93197e-21
2.47078e-20
0.000510744
-8.35103e-14
-2.05422e-27
1.9185e-32
1.266e-16
-9.97722e-17
2.80161e-20
-7.32698e-17
7.46922e-17
1.54892e-11
-6.68093e-17
5.62948e-18
-5.32891e-13
-1.30378e-10
1.95765e-15
-4.22059e-14
2.65691e-29
-5.44362e-31
1.91747e-14
1.54533e-30
4.93134e-15
1.37948e-10
-1.73669e-10
1.09927e-15
-1.42849e-15
8.49419e-27
-2.20637e-30
6.21923e-31
-3.93083e-12
8.61848e-13
-2.42055e-20
1.9539e-19
9.24206e-14
-8.09535e-14
1.18136e-28
0.000476001
2.58277e-13
1.93394e-27
1.47413e-12
2.14036e-25
5.99932e-12
-6.88473e-13
0.000437986
1.08623e-20
-5.01062e-21
0.000522472
-0.00016593
0.001223
-0.00063119
1.03082e-14
1.77088e-10
-5.89636e-12
4.00699e-24
0.000335873
1.18988e-18
-7.62585e-31
-2.80006e-30
1.99544e-30
-1.69822e-32
6.58001e-31
4.15797e-23
1.86789e-32
-3.81688e-17
-8.61217e-14
2.59314e-15
2.96503e-22
-6.78209e-27
4.78279e-30
1.68217e-32
1e-34
4.04871e-20
-4.10338e-20
-4.0745e-15
1.64936e-16
-2.30215e-14
-1.5773e-16
-6.54039e-31
1.05134e-30
-4.03954e-31
5.40423e-19
-1.64837e-17
7.14009e-13
-1.86297e-14
9.93257e-13
-1.46753e-12
2.92452e-28
-2.4619e-32
2.54403e-12
3.46907e-17
-8.32522e-18
3.74927e-12
-2.72966e-15
-5.60633e-13
1.48106e-13
4.58434e-15
-1.91316e-15
-1.27515e-18
1.7496e-12
-2.61216e-12
1.8032e-22
9.75049e-14
0.000711012
-0.000408951
2.16652e-17
1.42219e-33
-6.3053e-13
5.11096e-14
-3.77991e-15
-6.44354e-12
3.47699e-13
-1.94268e-19
3.48438e-19
1.18042e-13
-7.11865e-17
1.20995e-18
0.000185019
-1.754e-13
4.403e-15
2.65997e-12
-1.09819e-13
1.55596e-20
1.36675e-14
-2.74214e-31
2.25133e-33
-5.22802e-14
6.78473e-15
1.43164e-12
1.17129e-14
-1.84116e-19
-4.5401e-19
9.16113e-20
-7.63349e-13
2.58161e-35
4.901e-35
1.49563e-12
8.4324e-14
5.59363e-16
4.12173e-20
-3.10432e-23
-5.7745e-15
1.11234e-13
-1.35653e-14
3.45863e-14
5.78815e-22
2.22442e-13
-1.97194e-13
5.4103e-15
2.45469e-19
2.16353e-36
1.87678e-14
-4.6824e-17
-2.8347e-15
1.08857e-34
2.61696e-14
-1.07899e-13
2.07133e-27
5.21961e-21
2.27965e-20
3.90064e-31
-9.61752e-14
1.00343e-14
-1.59689e-14
-0.000130924
6.0747e-33
-3.52139e-14
9.03228e-14
4.6115e-15
-3.72459e-15
1.32949e-15
0.000572295
3.37428e-16
-2.64021e-19
3.15422e-19
-6.43135e-16
-4.32983e-15
6.50852e-16
3.60605e-14
-1.49318e-15
-5.3924e-15
1.47951e-15
-4.27175e-19
5.56365e-19
0.000101449
1.90521e-30
-1.84968e-35
0.000243274
-0.000599445
6.95933e-16
5.54339e-35
-1.64751e-16
3.58466e-18
-2.57928e-14
2.86891e-15
2.87166e-15
-2.84027e-18
1.3895e-14
-3.36844e-16
-3.01982e-16
3.06639e-16
2.6097e-13
-7.06837e-16
-3.34825e-08
-1.59075e-15
-6.68826e-17
0.000579197
-0.000335924
6.56317e-17
2.73468e-37
-6.30219e-20
-1.23713e-34
7.31123e-32
-1.34603e-35
3.91821e-36
-1.39052e-31
6.93082e-30
5.14226e-17
-6.32769e-17
6.18233e-31
-1.37645e-36
-0.000283839
-0.000489153
0.000323223
-1.44712e-29
5.69901e-28
-7.79095e-15
9.15141e-16
0.00063119
-0.000446172
1.77155e-16
-1.41734e-18
5.68518e-20
-0.000438629
0.000341505
-8.47599e-28
6.94884e-27
1.49907e-15
-1.78345e-16
-5.41317e-27
2.17922e-25
1.33007e-22
-0.000375667
-2.18699e-05
0.000402229
-8.67265e-26
3.90327e-24
1.91939e-21
-0.000105708
-6.38938e-06
5.30214e-18
5.48805e-14
9.71897e-16
-1.47398e-24
3.91645e-23
-1.18023e-13
1.02923e-14
-4.07848e-31
3.68047e-33
6.69269e-19
-7.52131e-17
-3.4408e-14
2.201e-14
-5.57551e-21
-9.54663e-16
1.28987e-16
2.00975e-16
-5.45953e-17
8.1386e-08
0
-1.89565e-07
9.59792e-15
-6.68587e-15
3.69844e-34
-1.69181e-34
1.22896e-15
-1.12875e-14
-0.000104915
3.42513e-16
-1.48937e-18
-1.51254e-20
2.02225e-20
4.49998e-14
-3.56188e-33
0.000175842
0.000170246
-1.53235e-23
1.56055e-22
1.27289e-18
5.20446e-18
-4.33399e-17
6.67969e-16
-2.01948e-19
7.20329e-21
3.94087e-18
1.76392e-37
1.80557e-16
-4.14325e-18
1.64719e-17
-3.05859e-21
-3.32697e-16
2.09046e-17
-3.90942e-36
3.90415e-36
1.1861e-39
6.97641e-16
-3.04127e-18
5.51868e-21
4.89853e-22
1.20402e-18
-9.43697e-17
1.47311e-17
-8.12767e-18
1.13586e-16
-9.00438e-17
4.8968e-33
-4.11944e-36
-7.19278e-16
1.90249e-17
-3.25647e-18
5.02674e-19
8.41857e-35
-5.46315e-38
1.54821e-18
-1.73175e-18
-2.69025e-17
-1.734e-19
1.00914e-16
2.76159e-20
-6.72964e-20
1.70144e-15
-1.76684e-17
-6.51071e-23
4.99173e-22
-6.71178e-18
-8.35169e-17
8.89749e-18
-1.03538e-21
1.72976e-36
-1.32684e-39
1.89354e-14
-1.2577e-17
-2.1633e-22
-5.8109e-17
4.49068e-18
-1.95912e-19
8.51137e-22
-2.42589e-20
-2.8844e-15
3.83458e-16
1.225e-15
-6.67333e-19
0.000261783
-0.000545621
8.01203e-17
0.0004874
-0.000225618
-7.76301e-17
5.94603e-46
1.26165e-20
9.0456e-16
5.40421e-18
-8.30339e-19
-6.74681e-20
1.80178e-21
0.000446172
-0.000275926
1.26796e-17
-3.61323e-21
4.02589e-18
-2.55871e-20
0.000151477
5.52015e-35
2.47199e-44
7.58834e-06
-7.72203e-06
1.97482e-16
-1.20434e-16
1.16945e-20
1.12304e-19
-0.000209748
4.79334e-20
-3.73702e-21
5.74797e-22
1.8641e-37
-3.17912e-41
4.80052e-18
-1.66583e-18
-1.74203e-35
6.87695e-38
2.66954e-16
-1.79729e-19
-1.95441e-19
1.62498e-21
1.8595e-20
1.80847e-19
-1.66631e-22
-4.64144e-38
1.81571e-21
-9.75365e-22
-2.83224e-22
6.42892e-22
9.92759e-18
-2.25915e-23
5.70992e-22
-2.98088e-21
-2.83284e-20
5.12773e-21
-0.00044433
0.000234582
-9.62124e-18
1.26944e-18
-0.000341506
0.000236591
1.78706e-18
-1.3927e-18
1.28335e-17
-2.04832e-17
4.51877e-18
2.32676e-19
1.20797e-18
-1.29028e-20
1.80888e-19
-3.81146e-23
-1.6006e-21
1.40444e-23
1.12429e-38
-2.1647e-41
-2.74743e-24
4.54351e-10
1.79861e-21
-2.99557e-19
-6.48526e-21
2.05315e-22
-3.64592e-21
7.52736e-23
-5.87715e-20
0.000479339
-0.000220987
-0.000372156
-1.18745e-21
2.34708e-22
2.67333e-20
-2.74776e-20
2.6265e-18
-1.46556e-18
1.32842e-18
-9.06953e-18
-6.68651e-25
0.000275926
-0.000124449
-5.13398e-16
1.32665e-16
-2.6644e-23
8.10522e-25
-1.7909e-21
2.76973e-18
-8.19584e-17
1.33837e-17
-2.02063e-46
-1.33506e-55
-3.45902e-33
3.46526e-35
-0.000121107
-8.58183e-19
1.21822e-19
3.22804e-20
-5.02072e-23
3.81585e-23
1.22245e-28
1.79895e-21
-3.16406e-25
-1.40765e-22
1.83199e-21
-2.52516e-26
2.60498e-22
8.50192e-20
8.13326e-17
-1.54822e-19