/*--------------------------------*- C++ -*----------------------------------*\
  =========                 |
  \\      /  F ield         | OpenFOAM: The Open Source CFD Toolbox
   \\    /   O peration     | Website:  https://openfoam.org
    \\  /    A nd           | Version:  8
     \\/     M anipulation  |
\*---------------------------------------------------------------------------*/
FoamFile
{
    version     2.0;
    format      ascii;
    class       volScalarField;
    location    "0.4";
    object      alpha.water;
}
// * * * * * * * * * * * * * * * * * * * * * * * * * * * * * * * * * * * * * //

dimensions      [0 0 0 0 0 0 0];

internalField   nonuniform List<scalar> 
1924
(
0.00037653
6.12821e-06
0.000161813
0.00117964
8.69561e-06
0.00196854
0.00135054
0.000382438
3.66228e-06
5.2403e-08
0.000153466
0.000172309
0.693345
6.30348e-07
0.00256149
0.00286467
0.85269
6.1371e-08
0.0153104
2.64277e-09
0.999137
0.237148
0.00176559
5.17861e-11
0.0557967
0.141759
0.0274916
2.74425e-08
1.82059e-06
2.07477e-10
0.0238738
0.439525
0.278521
0.524189
1.48715e-07
0.000220871
0.587669
6.64971e-06
6.35117e-09
0.413465
0.532802
0.990598
0.519777
2.82571e-05
7.07253e-08
0.0711395
3.91159e-08
1.35727e-08
1
1
2.29751e-09
0.996245
0.0087991
2.63925e-10
0.475107
4.75172e-08
0.0459674
1.26071e-06
7.7236e-07
0.0315295
5.711e-06
0.0014088
1.89915e-05
7.42824e-08
1.04065e-12
3.1083e-09
7.10465e-05
0.000464272
1.16529e-06
2.24802e-09
0.889468
0.000123353
6.76088e-08
2.07293e-10
2.20402e-10
0.00155246
3.05845e-09
5.40885e-11
1.10834e-09
5.20502e-08
7.86402e-09
0.028106
1.24218e-08
0.998294
0.0834983
6.91381e-05
3.91462e-09
0.000264563
1
0.888318
0.000204651
0.0274816
0.390637
0.260433
0.990147
1.51551e-14
3.25383e-08
7.95234e-09
0.0271297
0.00155246
3.71053e-07
0.99621
0.00283217
0.0965528
0.263758
1.80174e-09
1.13796e-06
0.261479
0.0116155
0.112217
1.65043e-09
1.16496e-06
3.19596e-06
6.04789e-09
9.98676e-10
0.998063
0.000414818
0.00286467
2.40939e-08
3.02969e-09
0.626395
1
1
0.891333
1.72802e-05
0.126175
0.00155246
1.73922e-12
1.16496e-06
1
1.39302e-09
1.76746e-06
0.000875287
5.06163e-08
0.996329
0.0735432
1.04879e-06
9.41227e-07
8.2117e-09
9.15288e-07
3.15336e-09
1.24074e-05
0.0518576
0.843921
0.00198124
1
0.199116
0.582973
0.000325413
1.31549e-09
0.076351
1
0.531487
0.000226689
0.00198782
0.118709
1
7.22536e-07
1.39302e-09
0.00714079
5.47387e-09
0.0662153
0.00200801
1
0.757259
0.00766563
0.0110254
1
3.09203e-09
1.16278e-06
0.0266488
0.00159682
1.43495e-09
0.134732
4.67206e-08
0.404472
8.54822e-10
0.173626
4.29779e-06
0.00202276
0.0673814
0.00103834
3.32273e-10
0.0620869
1
4.02962e-08
0.824748
0.0631521
1.42873e-09
2.06695e-10
0.0135447
8.83184e-06
1.56387e-09
0.00199629
0.0190244
1
0.0676336
0.559434
0.244259
0.989424
0.845638
4.02962e-08
2.31892e-06
2.39534e-06
6.40621e-05
0.0631521
2.39534e-06
0.995292
0.961256
0.000875287
1
1.20496e-06
8.25878e-09
0.000772105
0.0631479
1.59486e-09
1.00953e-06
0.0113931
8.49875e-07
1.68016e-12
0.0279446
1.24218e-08
2.97254e-06
1.11342e-08
2.79341e-05
0.0676388
1.49942e-09
3.42192e-10
0.000663347
0.989114
0.473306
0.000162287
0.0821486
0.0107807
0.0676388
0.062748
7.09864e-09
8.37985e-07
2.97254e-06
1
2.22549e-06
0.234704
1.07347e-07
0.995826
0.154913
0.983841
5.13918e-07
5.70597e-08
8.51845e-10
8.23979e-10
4.02233e-08
1
0.000678734
1.45554e-06
1.46946e-09
8.89856e-09
0.371173
0.804935
0.0356575
8.25784e-07
0.0929839
3.02302e-05
0.132697
2.14409e-09
0.24357
4.74746e-11
0.962717
1.16566e-12
0.433394
0.0172069
0.988367
0.0256388
0.35953
0.340381
0.000369027
3.17651e-12
3.74971e-07
0.0632433
6.14533e-06
0.74005
0.848636
1
0.000138466
0.000942014
0.624518
2.03327e-10
1.47063e-09
1
5.51744e-06
0.171081
0.00128412
2.9611e-06
0.00899678
2.11837e-09
0.972838
0.970204
5.29084e-07
0.995948
6.55068e-13
3.47913e-09
1
0.000553744
1.40874e-09
1.94075e-09
4.64018e-08
0.0479868
0.554101
1.2395e-11
0.809362
6.82839e-08
0.994926
1.07663e-10
6.48913e-05
7.10631e-05
1.65501e-09
0.332023
0.0929839
5.03885e-06
0.000910687
0.053586
2.82428e-07
0.987474
0.00201605
0.378806
0.0891131
8.06022e-12
0.174832
0.216787
1.45389e-09
1.53247e-09
0.91906
3.78387e-05
3.42091e-05
1.95311e-08
1.87277e-12
0.000505997
0.00740244
0.00154668
2.59807e-05
0.00202276
8.51348e-12
0.0252941
0.000517029
0.995537
-2.70291e-07
3.49056e-05
0.843101
2.20851e-05
4.3498e-12
0.0806655
0.385124
0.0116633
0.997664
2.64235e-10
0.996183
1.80078e-11
1
5.47189e-07
0.775221
3.28842e-14
0.000303696
2.04191e-08
2.24375e-11
0.00827139
0.0290485
0.0013695
0.000299667
0.719422
8.48759e-06
0.00153526
1.18472e-11
0.0631413
0.57274
9.43384e-07
0.249432
0.0275229
2.82302e-08
0.000937627
0.00659111
3.29019e-05
3.32422e-05
2.32435e-10
0.0771167
0.00541449
0.976386
1.19129e-11
1.87563e-12
0.00365241
0.378925
0.0011683
0.610726
2.11248e-06
0.0640756
3.45174e-05
0.000336625
0.00122321
0.380117
0.00114426
9.49595e-08
0.000509739
1
6.28507e-13
0.99544
0.260817
1
0.0209543
1.4631e-09
2.57255e-05
0.770001
0.389069
0.000221089
6.17798e-07
3.44594e-07
8.49875e-07
3.97081e-06
1.90069e-09
2.6299e-12
4.32047e-08
1.25569e-05
1.39668e-09
1.77313e-09
0.43754
2.34886e-09
0.996071
0.00525171
1.58474e-11
1.44249e-09
1.74989e-05
3.42381e-05
0.0467208
0.0217988
8.04275e-12
0.062704
1.88604e-08
6.28459e-06
0.173738
1.50329e-11
0.000818122
9.08e-07
0.00324918
0.971425
0.378943
0.0371869
0.999588
3.35547e-05
0.592439
0.000149458
1.29769e-12
0.0244339
8.95083e-05
0.000970833
4.76627e-06
0.0013124
8.63554e-08
0.379739
0.0235755
1.35749e-11
9.19315e-08
5.87067e-10
0.00171723
1.74547e-11
3.3267e-05
0.00106088
2.33341e-10
0.994734
3.77818e-05
3.13443e-05
1.9678e-05
4.28531e-06
1.14785e-07
0.339707
1.3566e-08
1.30659e-08
2.4755e-14
0.0122077
3.0954e-12
7.5112e-08
5.74929e-06
3.43698e-05
0.000477803
0.00262084
1.74906e-06
0.0136836
3.4129e-05
1.95032e-05
0.0222586
0.0304207
2.72768e-06
0.00886721
1.43925e-09
0.00303861
0.00319945
4.13546e-09
1.39432e-09
7.83376e-11
6.5121e-11
0.00821473
0.0217988
0.158304
0.825659
2.48792e-11
1.52679e-07
0.71785
0.000177599
0.995948
8.78847e-10
1.04914e-07
0.38033
4.98461e-07
2.40006e-11
4.73867e-13
3.00577e-14
0.0198376
0.0432381
0.00112195
0.0019648
0.000104968
0.00635975
1.75595e-06
0.00295784
4.66397e-11
1.72758e-07
1.0571e-12
1.4965e-11
0.0178461
0.00278483
2.36846e-12
6.55257e-07
0.379929
3.27547e-05
2.27911e-11
1.61758e-05
3.04117e-08
2.26547e-06
0.729133
0.0014341
2.1301e-06
0.00188
0.00199893
0.00142472
1.93616e-06
0.369446
1.03561e-08
3.94478e-13
1.75509e-14
1.60241e-06
2.24483e-05
0.0826296
3.51727e-05
1.18324e-11
1.42736e-05
0.00544266
8.20878e-06
1.54329e-10
0.141268
2.0317e-06
4.83565e-07
3.03493e-10
0.999437
1.45178e-07
0.00102831
1.65761e-11
0.00358422
0.0135428
0.667855
0.000113008
3.75954e-12
1.39668e-09
1.36724e-08
3.42711e-07
1.33869e-14
0.000171929
0.379739
0.0211587
1.32344e-12
0.0119057
1.23358e-06
0.995125
2.9217e-11
1.96055e-07
9.47147e-06
0.0106618
5.39688e-07
0.0211587
6.56888e-12
3.48614e-08
1.58011e-10
5.64026e-13
2.20922e-14
0.00707188
0.195459
6.72223e-11
0.181923
3.29024e-13
3.60235e-09
2.59415e-11
0.0119057
9.44592e-10
0.00717512
4.07702e-12
1.47335e-13
2.58153e-10
0.000216517
0.296044
1.61531e-09
1.36103e-05
0.0207908
5.30783e-13
0.000230495
1.7197e-14
0.00259316
1.02512e-07
4.01859e-07
1.76571e-09
2.54852e-06
0.00602467
0.00162701
0.512733
1.75346e-12
0.498531
7.20366e-14
1.13174e-14
1.39668e-09
0.000190216
1.42639e-06
1.68871e-08
4.24478e-08
0.0106618
0.0101993
9.29382e-08
0.00348582
6.8871e-07
7.72659e-10
3.18067e-13
2.12538e-10
5.85772e-13
4.60898e-06
0.999896
3.89738e-07
7.06794e-14
2.27326e-06
0.0107715
4.91659e-08
0.370904
1.89082e-09
4.24563e-09
1.91888e-05
3.61671e-07
-1.22865e-06
0.0889748
3.42026e-12
0.0211587
6.16265e-07
0.000109707
4.3981e-07
0.0124942
4.26493e-13
4.08952e-13
0.249445
1.8771e-08
1.51616e-06
2.75907e-10
1.45945e-12
1.35095e-14
0.00472474
0.0267849
0.000289287
0.00917565
2.82938e-11
1.9041e-09
4.54965e-07
1.20222e-14
-0.000430083
5.20167e-09
4.72529e-08
3.73148e-14
7.42253e-07
1.73811e-05
2.39281e-12
1.73422e-08
2.12941e-11
3.73635e-11
0.0111482
0.0111482
0.00024387
2.1301e-06
0.0118235
1
1.20228e-13
4.20969e-10
0.00700632
0.000208041
5.16818e-05
8.53592e-06
3.06549e-13
8.16137e-10
1.67712e-08
1.47816e-13
3.36634e-08
3.30736e-07
1.13455e-14
4.9279e-14
5.91316e-07
0.736482
6.76361e-15
3.50646e-07
3.06153e-10
0.0500922
7.87954e-14
7.60944e-11
6.29847e-12
3.50628e-12
0.000452495
1
0.0142266
0.00370732
0.0073323
1.85688e-14
2.06947e-09
0.216866
2.97814e-12
0.0106969
1.61935e-13
1.56818e-08
5.33288e-05
0.872882
0.00280601
1.98014e-18
0.0195042
9.55683e-17
0.000518185
9.2492e-10
0.999693
2.50184e-07
0.0111482
0.000706645
0.0104547
1.94075e-09
0.0110996
2.42827e-15
1.94087e-14
4.01637e-05
1.20399e-14
1.05997e-19
0.00015964
0.99982
8.29465e-11
4.28268e-10
3.17037e-11
2.12654e-17
4.1999e-05
1.51233e-09
1.28963e-06
0.999745
0.961645
0.000163624
1.63609e-05
3.95727e-17
1
0.0107983
1.47997e-06
1.77671e-05
1.34366e-08
3.83084e-15
1.49204e-07
4.195e-10
0.0400068
3.01425e-10
3.76464e-11
1.93785e-05
9.64327e-05
8.53435e-06
0.999837
6.90089e-05
0.182581
3.2467e-12
6.98678e-11
0.00528963
7.50359e-10
2.33326e-10
8.52117e-16
5.98251e-15
2.30734e-06
0.0269332
2.69686e-07
1.71253e-08
1.0703e-05
1.78015e-07
5.68375e-11
0.896628
1.12629e-10
7.28515e-16
3.36046e-11
3.8717e-06
2.68825e-08
3.00243e-17
1.3032e-12
4.19203e-13
2.75417e-08
1.57491e-14
0.000155917
0.00252017
-1.35802e-05
7.13151e-07
2.07126e-15
9.39925e-08
0.964939
0.00227966
-7.37492e-06
1.33528e-10
4.24504e-08
1.15306e-14
0.999392
4.84397e-18
8.74607e-13
3.68372e-11
0.00701116
2.11578e-13
2.11675e-06
1.8657e-07
6.69012e-17
0.000186619
9.19463e-10
-1.68595e-12
-2.08553e-06
2.88535e-15
7.56566e-10
0.0107732
5.77824e-06
2.87194e-11
1.02823e-05
5.08858e-16
8.96527e-12
0.00349506
7.46221e-09
0.0214928
6.32428e-15
7.35289e-05
1.96748e-17
0.999628
1.29827e-08
1.04539e-14
3.47247e-05
4.48461e-05
1
2.23449e-17
3.61604e-06
9.10713e-10
0.00546728
5.45381e-16
3.08291e-06
-4.53408e-07
1.09138e-13
5.66929e-15
4.83189e-05
1.36807e-10
2.26466e-18
2.59338e-11
-3.4338e-15
2.36713e-14
0.00395075
5.9067e-09
1.29318e-10
1.59622e-06
1.78167e-17
-1.3956e-08
3.06116e-14
5.02378e-06
1.15667e-12
2.75699e-12
7.5145e-18
4.92012e-14
5.02257e-18
3.74464e-06
2.51694e-11
1.78331e-06
1.8847e-15
1.94392e-16
1
1.19097e-08
0.214352
9.78741e-13
0.00361003
4.25361e-06
7.59331e-09
2.91686e-08
1.95074e-07
2.08391e-06
9.17667e-07
3.62377e-05
1.10759e-10
2.46791e-17
0.610784
1.90832e-09
3.21227e-12
1.05093e-12
7.51998e-14
5.3641e-05
6.90004e-19
6.66346e-07
1.24212e-12
2.38521e-07
3.64212e-12
1.20553e-19
0.00307232
3.39056e-09
3.44073e-11
3.81004e-16
3.96953e-05
1.19233e-10
0.000352817
3.22752e-05
1.22601e-14
2.8831e-16
-3.17872e-18
1.5052e-08
3.82529e-17
1.26756e-05
6.92511e-12
3.64647e-14
5.90193e-09
2.66655e-06
4.77556e-11
1
3.02641e-17
2.25878e-13
4.27985e-16
0.000136025
7.71933e-06
9.57737e-07
8.00002e-12
0.000220855
3.70024e-07
7.12032e-19
1.2813e-10
0.0191037
3.10153e-05
1.67051e-17
9.67171e-08
2.83147e-07
3.31798e-14
1.41552e-13
2.6016e-17
-1.07493e-12
4.53747e-19
2.1838e-10
1.07135e-11
4.69826e-11
7.51835e-15
5.38875e-06
5.94284e-20
2.9131e-08
0.999584
2.18152e-15
0.000289752
0.867513
2.28789e-19
0.0199587
5.42315e-14
2.17981e-06
0.999992
7.40685e-18
8.34379e-14
1.44036e-07
3.82375e-19
4.21387e-08
3.88138e-10
9.03588e-11
0.00120904
1.95996e-19
2.11668e-14
3.81672e-13
2.30562e-14
0.00239297
2.29435e-07
0.0426958
2.9516e-09
2.21949e-05
-1.17667e-07
0.146988
-1.17765e-06
2.9838e-06
8.5985e-21
8.02243e-13
1.12663e-06
-2.293e-07
1.84974e-11
0.99997
0.999284
4.26853e-19
0.000814891
8.42418e-09
1.94686e-17
1.52243e-12
4.76716e-17
1.21867e-13
1.34527e-20
1.22355e-05
3.11482e-06
5.3145e-15
-3.54815e-07
-1.17924e-17
1.62155e-21
-2.22459e-07
1.85838e-15
0.00148392
3.72721e-07
5.97406e-11
1.2282e-13
0.999998
4.71444e-12
2.91369e-17
3.27607e-07
4.17483e-10
4.3192e-14
9.16909e-16
2.52327e-10
4.90465e-08
1.09026e-14
6.77152e-10
2.06737e-12
1.0396e-10
4.91598e-13
0.999994
5.07229e-14
8.87475e-15
4.80496e-11
4.37458e-14
1.2829e-10
1.15255e-07
7.38806e-08
0.999992
5.54053e-23
1.26998e-16
1.79077e-06
-2.40247e-21
1.2303e-22
1.03056e-13
4.64215e-11
0.999944
4.44995e-11
2.35545e-21
-8.90929e-08
2.32664e-06
4.60128e-08
4.57348e-08
3.01484e-07
2.80527e-18
2.00806e-05
0.000210218
1.22584e-11
1.27442e-13
8.70991e-12
2.81234e-16
7.08846e-12
4.05963e-09
5.0801e-07
3.80793e-10
4.55304e-11
1.10091e-08
9.76439e-21
1.57806e-06
6.44491e-23
1.27787e-18
0.906777
1.29893e-16
4.44627e-14
4.89947e-09
1.04656e-08
7.48904e-18
3.09185e-21
2.25319e-08
-1.37504e-19
2.11346e-12
6.12037e-17
1.6526e-07
1.5945e-09
3.24427e-24
8.74896e-08
4.48863e-16
1.69204e-10
4.02563e-06
1.76937e-10
2.07643e-15
0.215954
2.31811e-22
3.02206e-22
2.74278e-16
7.06093e-10
2.18765e-08
6.05282e-09
4.89364e-15
1.70623e-06
9.79764e-06
3.18523e-05
6.05971e-12
1.03639e-10
-1.29963e-09
2.708e-09
-2.5239e-11
4.91686e-20
6.10322e-21
1.39142e-14
3.56866e-23
3.30532e-10
2.01978e-08
2.5707e-17
1.36051e-24
9.66972e-07
4.28156e-06
9.55416e-09
1.98684e-18
7.96355e-10
1.45086e-19
7.74036e-19
3.80406e-07
9.67618e-21
2.05543e-12
8.43995e-14
1.58877e-20
4.93495e-10
9.59582e-07
1.84436e-23
1.05411e-08
1.44174e-14
3.2121e-15
0.013948
7.43419e-12
2.50157e-19
2.91662e-10
1.15772e-14
2.10209e-07
-6.06737e-09
-2.39002e-10
2.53155e-18
1.07118e-22
-2.42903e-09
5.69032e-16
3.42845e-18
6.96632e-25
2.86478e-17
-7.19983e-09
5.57063e-17
-6.34678e-24
4.17716e-25
1.92196e-13
2.50288e-14
1.22024e-11
5.39348e-17
5.20364e-05
0.87084
1.40498e-12
2.80527e-18
2.94048e-10
5.69548e-08
-1.15021e-11
4.04698e-13
6.73333e-19
9.85542e-12
0.999992
3.88052e-10
5.2967e-08
5.71004e-19
4.04729e-13
3.12774e-13
0.881312
-2.78493e-22
1.90134e-10
6.67297e-16
1.28364e-16
1.22094e-12
2.62005e-24
9.21603e-27
-8.31917e-24
2.39079e-07
2.70317e-07
3.96205e-11
0.999996
8.3552e-08
6.32405e-08
1.5952e-09
4.8062e-27
6.90779e-10
6.70845e-25
1.68939e-09
2.18948e-22
1.06745e-25
2.18331e-13
9.66883e-10
2.60123e-11
1.03354e-13
1.12136e-20
-4.92454e-11
0.999935
0.0535902
2.77428e-09
1
3.91377e-13
7.77919e-20
8.07469e-26
3.59658e-10
-7.20856e-11
1.80602e-11
1.33059e-24
4.31785e-11
3.23685e-19
4.19962e-12
1
1.92074e-15
2.94148e-08
3.3697e-18
4.96134e-13
4.82584e-23
1.52171e-09
0.604197
0.999998
1.62187e-10
2.36104e-14
2.73642e-16
1
1
7.77786e-08
1.09565e-11
6.92533e-18
0.999998
-8.22917e-11
7.15887e-22
1.85929e-27
1.06731e-15
1.12784e-13
2.67563e-18
3.63579e-14
2.98349e-08
2.87008e-15
1.16722e-08
6.96087e-10
1.64527e-10
2.82976e-26
-1.15378e-12
1.9088e-26
3.16551e-12
9.92331e-08
4.82507e-13
-9.63315e-28
-1.15129e-25
-6.57998e-12
6.8182e-18
7.44641e-11
1.20676e-24
0.999992
3.09172e-10
1.28997e-23
4.06765e-09
3.28443e-22
-1.66324e-10
0.876249
1.93275e-17
1
1
2.7598e-11
2.33657e-10
4.86738e-21
4.20322e-19
1
2.79799e-14
2.60005e-28
8.48064e-29
5.73807e-20
1.90724e-28
5.38398e-15
9.08096e-13
4.62394e-18
-1.25722e-25
1.6722e-29
2.93123e-18
5.68889e-14
-3.35214e-12
-1.98298e-12
1.15123e-26
-2.53243e-26
5.00169e-16
1.61213e-12
2.77306e-10
5.93015e-28
1.38624e-09
1.24276e-14
-4.00183e-12
6.49701e-12
4.09564e-12
-2.87201e-13
1.46627e-09
1.40167e-19
3.57728e-11
1
6.70066e-14
1.38822e-28
3.60767e-11
1.49956e-11
9.31627e-10
6.94397e-16
4.14808e-06
3.39484e-11
9.42401e-16
1
1.46946e-12
7.52394e-12
1.88093e-16
7.84457e-12
9.79764e-06
7.85868e-30
2.2191e-12
1.73203e-09
2.72968e-06
3.85244e-13
1.15372e-15
8.2936e-18
7.99156e-10
4.53047e-30
1.93506e-10
1.43115e-12
1.26902e-19
2.05903e-10
-1.58194e-12
1.80827e-11
3.31397e-19
1.3028e-10
5.20364e-05
1.30254e-11
0
2.42306e-32
5.02165e-14
1.4299e-13
7.07921e-31
6.40176e-11
4.95746e-09
-3.88593e-26
-6.18714e-34
4.61812e-27
6.97709e-13
1.41534e-11
1.40051e-11
1
1.43308e-28
2.38694e-11
2.00427e-24
4.88868e-12
4.67574e-13
0.999995
-4.1525e-14
6.49402e-16
5.5308e-13
1.99281e-14
1.97855e-17
4.31127e-13
1.21269e-13
6.74462e-14
4.0851e-16
0.831414
0.83526
-1.07383e-30
1
1.69947e-13
-8.11176e-29
1.75627e-15
-3.61474e-13
-1.90052e-13
4.51509e-15
-8.0072e-14
1.11419e-12
0.872265
9.79627e-11
4.56074e-05
4.54029e-05
-8.87306e-15
1.82897e-13
1
2.26532e-13
2.69581e-14
4.04494e-32
-1.56147e-18
7.84779e-29
2.46684e-31
1.76837e-26
1.50467e-14
8.88154e-31
1
1
1.00485e-24
0
1
9.91539e-14
2.86103e-17
0.999963
2.31296e-24
-4.21452e-14
1.00489e-23
-3.09357e-34
0.888438
1.30711e-22
4.09386e-17
0.216359
2.05753e-15
2.84761e-11
1
1.24525e-13
1.83805e-21
2.44447e-13
-3.45458e-31
1.71964e-15
-1.03501e-14
9.58161e-12
3.33668e-18
6.9863e-14
2.11906e-13
0.000100434
1.06516e-11
6.45649e-31
1.44004e-12
1
-2.75895e-15
-9.98417e-18
2.12965e-11
-3.76366e-30
0.971825
5.6678e-26
1
1.61967e-20
2.69006e-13
-2.15056e-17
2.17586e-12
5.79732e-18
9.32923e-16
7.92974e-33
-1.74329e-16
5.68736e-14
5.23285e-14
-1.70668e-17
4.81582e-15
7.23279e-37
1.40223e-15
3.69594e-18
5.97919e-16
3.85954e-15
3.29628e-16
1.26226e-13
2.16977e-31
4.4858e-15
-1.23246e-17
4.91575e-33
3.75374e-16
7.26607e-14
1.9113e-16
1.09633e-11
-1.9231e-16
6.23399e-16
6.01687e-20
9.59885e-14
-8.46668e-17
-4.89739e-18
2.18154e-34
1.15235e-11
7.23602e-17
5.56662e-12
2.15643e-14
0.999333
-1.02758e-15
2.83848e-17
-5.93551e-15
-1.13768e-13
4.09805e-12
7.02033e-15
1
1.16312e-14
1
4.59556e-15
-1.45646e-39
2.07317e-17
1
4.45023e-13
4.1509e-16
2.52947e-15
7.19036e-19
1
2.16953e-19
-4.24704e-17
1
7.00481e-35
1.40291e-28
-0.000933308
2.35321e-13
-1.69801e-17
-1.04754e-16
1
-1.63037e-17
-3.26171e-17
8.11656e-35
6.00596e-15
-3.75681e-34
3.17019e-13
1.46326e-18
-2.98711e-17
7.05545e-17
-3.3374e-18
-5.55323e-35
-6.66499e-19
6.98757e-19
3.76569e-14
-1.00121e-18
-2.09354e-18
-3.07132e-19
1
6.45649e-31
6.18714e-17
1
9.86089e-29
1.60293e-15
1.89502e-26
4.41214e-14
-7.2176e-16
1.43565e-24
1.18379e-15
7.05294e-18
9.04344e-24
2.59387e-21
-1.18206e-18
9.89531e-35
9.57338e-23
1.20915e-21
-7.08439e-20
7.72608e-06
7.80489e-19
-9.66864e-18
2.15432e-19
1.72712e-20
-4.61975e-18
0.999994
0.888071
0.887278
9.99982e-21
-2.27958e-20
5.38786e-18
3.27476e-15
4.86813e-16
-1.59383e-19
1
2.41209e-13
6.10883e-22
3.18309e-15
4.96197e-15
-7.9525e-41
-2.39396e-32
1
3.81827e-20
4.15034e-17
2.99507e-17
1.59626e-32
-4.58764e-19
-3.03072e-21
2.22363e-23
-5.13375e-19
1.98572e-24
8.56801e-31
1.50491e-32
1.60402e-19
4.17948e-16
4.7829e-34
-2.97772e-16
1.33774e-19
1.60549e-22
4.06331e-19
1
1.40223e-15
9.08659e-16
9.0249e-20
-2.16739e-33
-1.35455e-18
1.60362e-16
5.35142e-21
3.77439e-16
-3.95909e-15
-1.24855e-20
7.248e-24
-7.51227e-31
7.77676e-23
5.74235e-35
-1.23778e-16
-3.81613e-20
-1.53609e-21
1.05732e-50
-1.02022e-17
1.11158e-19
2.95966e-16
1
0.999998
1
-1.31435e-18
9.48917e-22
-2.5423e-23
1.96717e-17
2.17422e-16
2.69813e-17
1
-1.34162e-52
1.07766e-17
9.22995e-25
5.95518e-18
-6.74185e-18
-8.3659e-27
-2.00978e-17
1.16033e-25
-2.11152e-18
3.59033e-24
7.75624e-17
1.07074e-17
-3.47444e-19
4.24744e-36
8.49179e-17
-1.43708e-20
-2.16026e-25
-9.35914e-17
4.98682e-21
8.08327e-19
5.12104e-18
-5.14238e-18
1
-2.98701e-16
2.11296e-19
0
-1.52434e-24
1.95788e-16
-1.05236e-39
1.32293e-19
1.66294e-23
1.61769e-18
2.05626e-13
-3.48248e-26
4.01523e-18
9.0249e-20
-1.26897e-18
-1.50095e-16
2.55076e-14
-4.39954e-22
2.60102e-26
2.03751e-15
-9.86539e-16
-1.28614e-25
1
-2.01655e-25
2.1891e-19
-9.30765e-26
-4.92037e-20
-8.98137e-23
-2.55565e-17
1.31952e-50
1.33268e-50
-3.04649e-21
1
1.06657e-17
6.82727e-21
-2.60836e-20
-6.7474e-19
2.54746e-27
2.04673e-18
8.32211e-18
-8.18073e-20
-1.08009e-19
-2.42695e-25
-1.81946e-18
-2.45592e-28
-5.67148e-22
1
1
-1.1218e-26
-1.09167e-17
-2.03909e-21
-1.01684e-38
0.993511
3.44953e-21
9.0249e-20
-1.37543e-19
3.79062e-20
1.55163e-27
9.98631e-20
8.05637e-22
6.53631e-21
-2.87837e-27
1.36914e-31
-1.95805e-27
1.35062e-25
-4.51778e-21
-1.17738e-22
2.79085e-21
-2.22804e-23
7.08816e-20
2.81435e-30
2.693e-33
2.47972e-39
3.85883e-31
-1.47191e-20
-2.22669e-27
1
1
0
2.20355e-34
-1.18004e-22
2.98789e-20
3.3864e-19
-3.05508e-19
-2.55987e-21
1.79896e-19
-3.59418e-22
6.18772e-26
-1.1708e-23
-5.74538e-21
-1.39883e-28
-5.04629e-24
0
2.27607e-19
-1.32089e-23
3.85719e-24
-3.07531e-24
3.85737e-20
2.01017e-19
1.61671e-19
-8.6647e-22
-2.25004e-20
-4.01178e-20
-1.49142e-25
-7.76496e-30
9.7279e-21
1.24867e-27
4.96223e-35
-1.21739e-31
2.90467e-25
4.10092e-27
6.81588e-26
-4.83371e-36
9.56652e-43
-6.61635e-22
-2.46984e-29
-8.25075e-34
-2.85124e-21
-6.82192e-25
-2.93301e-26
4.17225e-22
2.05785e-21
7.36717e-23
8.95264e-20
-3.6288e-26
8.75259e-20
2.56211e-36
-3.30299e-24
-6.32129e-23
-3.27917e-23
6.37777e-28
-5.18394e-27
-1.99132e-36
-2.97988e-35
-8.05752e-33
-3.02503e-24
-1.07983e-25
4.58965e-30
2.82644e-22
-1.29227e-22
-4.01917e-29
-1.09378e-29
-1.21485e-28
-8.85176e-31
2.32784e-19
1.30243e-28
1.81491e-29
4.3356e-31
-1.99046e-27
-5.04862e-25
1
1
2.30532e-48
1
1.42948e-34
1
5.60324e-30
7.89718e-31
8.95264e-20
5.81e-29
8.16767e-28
4.97134e-24
6.11578e-32
4.08774e-31
1.90844e-22
3.07834e-23
7.54551e-25
1.30546e-25
1.42776e-20
2.15622e-27
8.57707e-27
4.33555e-24
5.22687e-24
3.0007e-32
1.87946e-40
4.3105e-38
8.06244e-37
3.26833e-35
7.85162e-33
1.7723e-34
2.61145e-23
-1.21756e-26
7.58315e-10
-1.1502e-23
-1.69597e-21
-2.07255e-22
1.76982e-42
3.151e-42
1
0.616777
1
5.45978e-47
-1.7218e-42
2.27455e-06
3.49274e-16
-6.95909e-45
1.26465e-44
0.99956
3.08394e-09
1
1
8.57354e-50
1
7.56057e-07
1
1
0.000238976
1
2.94763e-05
0.991739
1
1.25821e-19
1.26828e-19
1
1
1
1
1
1
0.999989
1
1
0.96958
0.969618
0.969618
1
0.993969
4.0589e-07
0.769519
5.15103e-13
5.08138e-13
1
1
1
0.20575
2.60778e-09
0.188377
1
0.999559
0.862948
1
1
1
1
1
1
0.999945
0.999477
0.999999
0.993408
0.870706
1.67706e-09
1
0.969615
2.47535e-13
0.831872
0.526401
0.968697
0.759268
0.436554
0.48163
-1.4002e-07
0.969618
0.997886
0.247485
-0.00029904
0.747061
9.2458e-10
0.0033439
0.280589
1.05997e-19
0.508764
1.18316e-11
0.749896
0.514316
0.889453
1.85822e-07
0.0106886
1.03255e-07
1
0.466138
1
0.0026971
1.47386e-09
0.951361
1.183e-11
0.00122751
1
0.000191078
1.18333e-11
0.685962
3.72248e-06
0.685962
0.479849
0.277293
1
1.31148e-05
1
1
3.04411e-11
)
;

boundaryField
{
    patch0
    {
        type            zeroGradient;
    }
}


// ************************************************************************* //
