/*--------------------------------*- C++ -*----------------------------------*\
  =========                 |
  \\      /  F ield         | OpenFOAM: The Open Source CFD Toolbox
   \\    /   O peration     | Website:  https://openfoam.org
    \\  /    A nd           | Version:  8
     \\/     M anipulation  |
\*---------------------------------------------------------------------------*/
FoamFile
{
    version     2.0;
    format      ascii;
    class       volScalarField;
    location    "0.4";
    object      epsilon;
}
// * * * * * * * * * * * * * * * * * * * * * * * * * * * * * * * * * * * * * //

dimensions      [0 2 -3 0 0 0 0];

internalField   nonuniform List<scalar> 
1924
(
0.0650852
0.07263
0.0883845
0.0877869
0.0748029
0.0867113
0.0867354
0.0864455
0.0871115
0.0888381
0.0878783
0.0885178
0.0355634
0.0899966
0.0880571
0.085955
0.0371351
0.0902384
0.0605381
0.0910637
0.0256062
0.0583119
0.0552789
0.0909415
0.0606624
0.0642224
0.0670862
0.0849433
0.0734873
0.0778932
0.0477261
0.0597587
0.0564248
0.0421044
0.0865693
0.0587022
0.058588
0.0790901
0.0701453
0.0436165
0.0605256
0.028541
0.0613506
0.0542295
0.0832355
0.0617378
0.0674382
0.0881356
0.0226127
0.0217098
0.0749083
0.0304112
0.0584935
0.0727287
0.0483016
0.0888609
0.0592653
0.0866041
0.0864079
0.0803719
0.0628671
0.0870971
0.0611887
0.0681829
0.0697263
0.0890411
0.0901266
0.0576233
0.071008
0.0708122
0.0250804
0.0868791
0.0642968
0.0814336
0.0801169
0.0356861
0.0891677
0.0828173
0.0879703
0.0692026
0.0881512
0.0719009
0.0792864
0.0248494
0.0585275
0.060565
0.0875317
0.0893737
0.0210111
0.0247414
0.0901
0.0708142
0.058862
0.0615668
0.0274619
0.0607086
0.0891581
0.0886228
0.0803715
0.0284537
0.0883303
0.0268646
0.0815445
0.0754151
0.0638311
0.0863551
0.0862909
0.0576091
0.0792
0.0670234
0.0887825
0.0772378
0.0794043
0.0819616
0.0882889
0.0216058
0.0883084
0.0857556
0.0749538
0.0889474
0.0512437
0.0747737
0.0244359
0.0213714
0.0893693
0.0687513
0.0398928
0.0822118
0.0749682
0.118692
0.0887083
0.0882871
0.272061
0.0828226
0.0296682
0.0752879
0.0831856
0.0829153
0.0912764
0.0840743
0.0891021
0.0893584
0.596151
0.272483
0.0869693
0.0582172
0.0587256
0.0288534
0.0790469
0.0771419
0.0720476
0.151217
0.0371286
0.0878623
0.0863803
0.0677012
0.0739324
0.0870473
0.088275
0.521972
0.0825119
0.0399628
0.0871752
0.0788907
0.0671827
0.0754136
0.0771161
0.0947457
0.0887759
0.0806565
0.062054
0.0858891
0.0854854
0.0762407
0.0894214
0.0458002
0.079549
0.0798991
0.0636711
0.0861521
0.0618979
0.0879932
0.0859895
0.0758362
0.0221501
0.0787757
0.0394165
0.0693115
0.0888205
0.0847573
0.0525898
0.0862212
0.0884231
0.0857875
0.0834326
0.159952
0.0753125
0.0464486
0.0538706
0.0434183
0.18193
0.0798956
0.0833312
0.0872224
0.0701296
0.0613238
0.086378
0.0354301
0.0321543
0.247934
0.0836805
0.0853859
0.0917377
0.0823997
0.0684706
0.0856326
0.0784111
0.0519951
0.0870356
0.0804777
0.060334
0.0780677
0.0825543
0.0917548
0.0879917
0.0743815
0.0883494
0.0869333
0.0860363
0.0448206
0.193777
0.0867673
0.0537728
0.106266
0.0797217
0.429776
0.09131
0.088861
0.0871469
0.169427
0.088295
0.0561502
0.0909094
0.0365182
0.44164
0.0302033
0.0897641
0.0891982
0.0853922
0.085869
0.0833371
0.103829
0.085626
0.086091
0.088639
0.0912495
0.0641326
0.0535837
0.0599247
0.0896846
0.0685809
0.0867893
0.0753544
0.0865038
0.0612523
0.0754391
0.0337569
0.0832572
0.0468378
0.230747
0.0449319
0.0734246
0.0562137
0.0588312
0.0863045
0.0877438
0.0903215
0.0787349
0.0879463
0.0494246
0.167583
0.251308
0.0886723
0.0869227
0.0492809
0.084433
0.0885916
0.117793
0.0912623
0.056275
0.0871003
0.0660464
0.0829386
0.0908742
0.0192769
0.0702105
0.0903497
0.0356863
0.0810954
0.0908696
0.210876
0.0878226
0.0903097
0.0793009
0.0915611
0.0640071
0.039308
0.0898996
0.0545919
0.0840029
0.0320327
0.0785099
0.08687
0.0634101
0.0885968
0.0405794
0.0680712
0.0916767
0.0873018
0.0764131
0.0710064
0.0466988
0.0866985
0.0762843
0.0683779
0.0869339
0.0633235
0.0590201
0.0886414
0.0889556
0.0502432
0.089842
0.0665938
0.0916656
0.0765383
0.0818317
0.0844791
0.087139
0.0882471
0.0867494
0.0862162
0.0793175
0.0634908
0.0372517
0.0897368
0.0859105
0.229093
0.0891271
0.0789121
0.0630764
0.0615695
0.455057
0.187563
0.0901038
0.031457
0.0840772
0.0238425
0.0923549
0.0541359
0.050487
0.084917
0.0903721
0.0899017
0.0859097
0.0618413
0.0862846
0.0654808
0.0485874
0.0882461
0.087473
0.0891656
0.0755148
0.0573423
0.0886998
0.069052
0.0623061
0.0901165
0.0887778
0.0634741
0.0885278
0.0863009
0.0823856
0.0626399
0.0817212
0.0489315
0.0888714
0.0740909
0.0875777
0.0669303
0.0870667
0.209422
0.0694709
0.0695863
0.0893259
0.0890718
0.233785
0.06379
0.065189
0.0890733
0.0855355
0.0621779
0.07778
0.0393023
0.0514118
0.23015
0.083328
0.0881854
0.0889566
0.0558652
0.0632365
0.0838844
0.0725191
0.0923818
0.0883632
0.0897665
0.0798849
0.0868382
0.089598
0.0663015
0.0884392
0.0896171
0.0507461
0.087765
0.0338492
0.06361
0.088901
0.0885393
0.0605119
0.0683335
0.0738929
0.0842147
0.0862007
0.0772404
0.0757739
0.0890885
0.0716483
0.0887344
0.0425255
0.0896113
0.0646212
0.0503792
0.0669739
0.0808019
0.0645853
0.0880261
0.409983
0.0859096
0.0749369
0.0684203
0.0863094
0.0885138
0.0710462
0.0844725
0.0894788
0.0657817
0.0741152
0.0880274
0.0897042
0.0772407
0.0854442
0.0842482
0.0678872
0.0482791
0.0778876
0.0411442
0.0868655
0.0880172
0.0897062
0.0910256
0.0860941
0.0644667
0.0744661
0.0677838
0.0877628
0.0537724
0.082957
0.0563655
0.0917159
0.0874246
0.0860363
0.0850169
0.0909338
0.0816324
0.0875093
0.0698443
0.0650814
0.0716425
0.0882619
0.0766901
0.0885932
0.044094
0.075629
0.0761943
0.0878051
0.088409
0.0868056
0.0857199
0.0832277
0.0700516
0.0758745
0.0883958
0.0893852
0.0512228
0.0667336
0.0370781
0.0808045
0.0890574
0.066724
0.0731914
0.0876785
0.0788269
0.0862009
0.0839204
0.0838988
0.0855601
0.0855444
0.0687577
0.0728243
0.0916743
0.0857546
0.0779968
0.0888679
0.084228
0.0875449
0.0865918
0.07709
0.0677466
0.067795
0.0665312
0.0905147
0.0785613
0.0914492
0.0751838
0.0661993
0.0442622
0.0865295
0.0907908
0.0559425
0.0495475
0.0672408
0.0720625
0.0752453
0.0739626
0.0765072
0.0866529
0.0760663
0.0630103
0.0656049
0.0868361
0.0893667
0.0751811
0.0811185
0.0878666
0.0772736
0.0710936
0.0694573
0.0691999
0.0762158
0.0737931
0.0544615
0.0682616
0.0784982
0.0470905
0.0818183
0.0531016
0.0622102
0.083061
0.0878482
0.065895
0.0741953
0.0862054
0.0777242
0.0699877
0.0831457
0.0689865
0.0848108
0.0691717
0.0391807
0.0871381
0.0728509
0.0709317
0.0855782
0.0922333
0.0834757
0.0708915
0.0730678
0.0878236
0.0787102
0.0842697
0.0787009
0.0683073
0.0780436
0.170632
0.0736732
0.0763011
0.0871409
0.0848834
0.08824
0.0861907
0.0787539
0.0496199
0.0876824
0.0903651
0.0572824
0.076518
0.0897246
0.0759719
0.079094
0.0570941
0.0777032
0.0690576
0.0890332
0.0717778
0.0885471
0.0731172
0.0864148
0.0862327
0.0464658
0.0612048
0.0679511
0.0863412
0.083152
0.0875839
0.0705009
0.0914581
0.0649247
0.0740417
0.085875
0.079578
0.0738839
0.0865893
0.0757619
0.0878891
0.0788355
0.0775467
0.0550842
0.0747956
0.0679414
0.0778712
0.086078
0.0804375
0.0817342
0.0757916
0.0710832
0.080998
0.0882896
0.0723802
0.0871236
0.0781987
0.0552606
0.0784932
0.082226
0.0870632
0.0884503
0.0743421
0.0833086
0.0784783
0.0771397
0.071024
0.0759015
0.0687156
0.0772033
0.0656759
0.0843368
0.0836689
0.0539477
0.0713439
0.0864142
0.0783484
0.0770647
0.0750073
0.0790854
0.0547835
0.0887422
0.0880517
0.0833769
0.0917705
0.0880129
0.0771637
0.0759781
0.0865253
0.0863836
0.0860489
0.0856741
0.072334
0.0912338
0.0846969
0.0580516
0.0858222
0.0769904
0.0783981
0.0903267
0.0880704
0.075339
0.0782278
0.0870223
0.0770758
0.0698804
0.0765903
0.0745497
0.0792586
0.0781507
0.0776971
0.0428709
0.0719197
0.0782709
0.0809024
0.0744613
0.0857445
0.0781441
0.0783075
0.0776756
0.0815376
0.0594355
0.0727789
0.0787555
0.0825181
0.0779596
0.0868274
0.0423353
0.0669356
0.086307
0.0772154
0.0778638
0.0876803
0.0513058
0.0829969
0.0577232
0.0507523
0.0842703
0.082982
0.0780014
0.066622
0.0762296
0.085695
0.0733123
0.0849397
0.0793612
0.0860783
0.0776544
0.0739713
0.0838625
0.0773199
0.0881842
0.0884918
0.1658
0.0779494
0.0781553
0.0783093
0.0835678
0.0748453
0.0812723
0.0916162
0.0564557
0.0648252
0.0880238
0.0569993
0.0627642
0.0610959
0.0863485
0.0561146
0.0842618
0.0861623
0.0796901
0.0760001
0.0787412
0.0751563
0.0777757
0.0786445
0.077821
0.0872929
0.0771561
0.0735168
0.0819138
0.0448424
0.085066
0.0783026
0.075031
0.0787682
0.0810238
0.0772161
0.0699825
0.0905043
0.0496667
0.0917703
0.0531368
0.0879081
0.0792605
0.0854846
0.0731307
0.078941
0.0768794
0.0856798
0.0823617
0.0777185
0.0778
0.0851633
0.0635449
0.0798525
0.0773202
0.0562333
0.0529184
0.0757747
0.0517228
0.0697345
0.0873709
0.0533011
0.0870552
0.0832152
0.0783315
0.0547591
0.0839505
0.0731643
0.11221
0.077634
0.07905
0.0864451
0.0769653
0.0763095
0.0724305
0.0759774
0.0892092
0.0859786
0.0776885
0.0850155
0.0835386
0.0784011
0.0856648
0.0835773
0.0790867
0.087772
0.0698005
0.0778842
0.0775402
0.0778507
0.0767876
0.0672871
0.0864281
0.080126
0.198645
0.0890001
0.117443
0.079001
0.0769829
0.02685
0.0755919
0.0795358
0.0784835
0.0870425
0.0762766
0.0902182
0.0842816
0.0783996
0.0670999
0.0874867
0.0813835
0.0749785
0.0781218
0.0709379
0.0553132
0.0859142
0.0857708
0.081649
0.0544045
0.0752401
0.0824611
0.0730509
0.0771496
0.0786072
0.0788967
0.0785216
0.0767336
0.0741369
0.0903391
0.0783811
0.0541994
0.0669166
0.0764511
0.0672235
0.0807881
0.0453702
0.0771192
0.0868645
0.0494734
0.0811615
0.0782832
0.0827729
0.0898036
0.0846076
0.0853334
0.0786149
0.0705152
0.15153
0.0843461
0.084132
0.0843035
0.0833184
0.0873966
0.0742345
0.0873282
0.0784426
0.0496074
0.0774727
0.0566871
0.0784797
0.078667
0.0845646
0.0758378
0.0794443
0.0843292
0.0789921
0.0517698
0.0831813
0.367166
0.0616835
0.083427
0.0766367
0.0782556
0.0778341
0.0550798
0.0516134
0.0870704
0.0788107
0.0626421
0.0802758
0.0782985
0.0673989
0.0888007
0.0894342
0.0806154
0.0781707
0.0871339
0.0789367
0.0732903
0.0816707
0.0481446
0.0865849
0.0740588
0.0808653
0.0836946
0.0544024
0.337031
0.0790964
0.0699409
0.122109
0.0813825
0.0784604
0.0819075
0.0771546
0.0870301
0.071817
0.0790124
0.276802
0.0746975
0.085747
0.193418
0.0732852
0.0720623
0.077296
0.0868337
0.071601
0.0716746
0.0752802
0.0920304
0.0693102
0.0825095
0.0846008
0.0789763
0.079968
0.071496
0.0539916
0.0758205
0.0513461
0.0794839
0.0859165
0.0434353
0.0808167
0.080448
0.0850174
0.0451974
0.0867855
0.0807126
0.0707865
0.0763247
0.0796777
0.0841185
0.0786614
0.0517274
0.0426287
0.0719003
0.0605244
0.0827116
0.0686083
0.0766913
0.0726351
0.0508535
0.0708304
0.0859451
0.0862233
0.076795
0.0794723
0.0741397
0.0699373
0.086589
0.0732999
0.051295
0.0859267
0.0898679
0.082443
0.0539548
0.0769053
0.0749114
0.0863859
0.081244
0.0824346
0.08002
0.0813697
0.0810274
0.0739285
0.0790564
0.0828904
0.0825728
0.0831384
0.128665
0.0501601
0.0545376
0.0816243
0.0745553
0.0830884
0.0854721
0.0748888
0.0624993
0.0689026
0.0792452
0.0852314
0.0549523
0.0600529
0.0751143
0.0904638
0.0710685
0.0787309
0.0694864
0.0857096
0.0906239
0.084304
0.0861895
0.0801072
0.0725757
0.0806261
0.0803373
0.0817894
0.075528
0.0830473
0.0751605
0.0768984
0.0878614
0.0920717
0.0798441
0.082734
0.0832251
0.0673262
0.0807053
0.0677123
0.0681878
0.0394701
0.0751072
0.0502289
0.0843164
0.078902
0.0701124
0.0673299
0.0852541
0.0695088
0.0757232
0.0689942
0.0808281
0.0820897
0.12029
0.0846527
0.0697397
0.0786052
0.108085
0.080976
0.0704241
0.0392384
0.0674047
0.0663369
0.0559643
0.0809051
0.0850801
0.0803335
0.0709187
0.0849523
0.0958454
0.122778
0.0765567
0.0810852
0.0840847
0.0881863
0.0821863
0.0718726
0.0642836
0.0711574
0.0642827
0.100506
0.079845
0.0385166
0.0629963
0.0802164
0.0846999
0.0796672
0.0724652
0.0840328
0.13926
0.176725
0.0922773
0.0716759
0.0756034
0.081183
0.0652067
0.0783715
0.0803354
0.0660568
0.0836104
0.081308
0.0794319
0.0455389
0.0811995
0.0661125
0.0935259
0.0514272
0.0843753
0.0830888
0.0835641
0.0669908
0.0633595
0.0781205
0.078869
0.0730047
0.0581219
0.0677672
0.0833834
0.185073
0.0529905
0.0615267
0.0710147
0.0977728
0.0757557
0.0683352
0.126093
0.0666724
0.0812752
0.0710264
0.0833568
0.0844807
0.0822311
0.0815329
0.0721486
0.0820547
0.0709128
0.080333
0.0802561
0.182857
0.0956292
0.0750828
0.0675648
0.0649397
0.0804156
0.0579565
0.0685745
0.081172
0.0620542
0.059663
0.0669444
0.0915721
0.0845902
0.0804432
0.0406787
0.086059
0.0839715
0.0830334
0.0582993
0.0819282
0.06095
0.079563
0.0555169
0.116867
0.0703461
0.0790349
0.0775366
0.0932118
0.0563898
0.0788972
0.0371122
0.0925797
0.0802882
0.052595
0.0772009
0.0572234
0.059475
0.0819893
0.0815946
0.0804936
0.054669
0.0811024
0.0579951
0.0746163
0.0567891
0.0532694
0.0811632
0.0585602
0.0804387
0.0686513
0.0816714
0.0405843
0.066119
0.0787072
0.0683426
0.0783382
0.102116
0.0764482
0.0794419
0.0740712
0.0588155
0.0713212
0.0812794
0.0688016
0.0566088
0.0385957
0.0930814
0.0779947
0.0690818
0.0795175
0.079673
0.0798649
0.080535
0.078285
0.0539731
0.081022
0.0487061
0.0808986
0.0817861
0.0802418
0.0557887
0.0508099
0.0798394
0.0585812
0.0796666
0.0497325
0.253979
0.0796475
0.0507866
0.0811773
0.0518353
0.0806096
0.0911046
0.0730203
0.0486372
0.123324
0.0797123
0.0813857
0.0527902
0.172822
0.0506821
0.0675482
0.056093
0.0500711
0.0535307
0.0478257
0.0793878
0.0765039
0.0713069
0.0617822
0.048614
0.0592604
0.0733696
0.0794771
0.076094
0.0516241
0.0633146
0.0539988
0.0797293
0.0736294
0.113053
0.080841
0.0964165
0.077788
0.0765742
0.0794418
0.0726254
0.0754181
0.0538948
0.0801087
0.0511104
0.080146
0.0540312
0.0722129
0.0760744
0.0786176
0.0576947
0.201276
0.0779807
0.0674557
0.0495882
0.0796199
0.0753716
0.0553651
0.0792387
0.167927
0.0469405
0.0702042
0.0877864
0.172198
0.0598071
0.0661898
0.0765024
0.0873971
0.0467679
0.073974
0.0793305
0.117895
0.0713831
0.0748861
0.0739444
0.0537004
0.0787562
0.22784
0.0725757
0.0766099
0.0429524
0.0788785
0.0791375
0.0442687
0.0788281
0.0784845
0.0630614
0.0724137
0.0636986
0.0775903
0.157454
0.174177
0.0640732
0.0459729
0.0624271
0.159462
0.0785977
0.0735005
0.158747
0.0783756
0.0561313
0.0693447
0.0792652
0.189562
0.171694
0.0625954
0.0677586
0.102515
0.102933
0.0899434
0.052693
0.0537276
0.0597207
0.0481995
0.0721099
0.0741286
0.0748586
0.0742257
0.0734793
0.0784898
0.163915
0.0775213
0.177259
0.217318
0.07706
0.0668
0.0459305
0.168031
0.0753676
0.0415484
0.0711931
0.0984403
0.0440217
0.0997399
0.0780489
0.108858
0.0537515
0.0383251
0.101028
0.0778064
0.115342
0.0728364
0.0658065
0.0765882
0.102112
0.0623697
0.103147
0.0709848
0.0999108
0.103684
0.052842
0.0368289
0.0595306
0.059933
0.194521
0.166389
0.103588
0.0769492
0.0571697
0.0775236
0.0766445
0.0597292
0.0642676
0.0558514
0.0772266
0.06211
0.0776035
0.0990096
0.0580217
0.0349554
0.0734961
0.071065
0.0776752
0.0577821
0.0409193
0.146151
0.0446536
0.102225
0.0787338
0.077324
0.0775322
0.0541378
0.0720729
0.0395672
0.0619322
0.0766764
0.170581
0.0699422
0.0650814
0.0393875
0.112638
0.0599756
0.0590054
0.0534102
0.0639679
0.0763425
0.0943887
0.0759095
0.0708247
0.0908354
0.0727107
0.0771238
0.0976898
0.0579016
0.074212
0.0707372
0.0989945
0.0542099
0.0742162
0.0697627
0.0878271
0.0762591
0.0513774
0.0563998
0.0757834
0.135803
0.075542
0.0564067
0.073581
0.0753832
0.0762875
0.0517078
0.0461153
0.0715852
0.0384357
0.0746449
0.0362607
0.0712385
0.19009
0.116599
0.115725
0.18035
0.0642572
0.107087
0.0741841
0.0613568
0.0381957
0.103937
0.133567
0.0469387
0.0752943
0.0740449
0.0768298
0.0447152
0.0680271
0.0688024
0.0847838
0.0718905
0.0446681
0.0738826
0.0730236
0.0583198
0.074434
0.062468
0.0481461
0.0600851
0.0937807
0.0747606
0.07229
0.0594609
0.0695054
0.0346565
0.113586
0.0508568
0.0703528
0.118673
0.0710001
0.125337
0.0734432
0.0623583
0.132862
0.0703609
0.114716
0.141039
0.0717459
0.0579667
0.0810828
0.149619
0.157459
0.0682902
0.0652543
0.0715295
0.0610499
0.0521617
0.071443
0.049064
0.0685166
0.164141
0.223861
0.163604
0.0627819
0.0606708
0.0699515
0.102403
0.0707786
0.0949698
0.111005
0.0681329
0.0685638
0.106443
0.0753727
0.0500784
0.0319691
0.166334
0.098579
0.0694218
0.12173
0.0551666
0.0683121
0.066513
0.0650402
0.066783
0.109497
0.104158
0.0575028
0.068356
0.100188
0.0680294
0.0875876
0.0685227
0.0491302
0.166766
0.196911
0.213121
0.113352
0.0492878
0.0563544
0.0691149
0.065162
0.0670223
0.0752526
0.0530346
0.0613198
0.0733271
0.0664469
0.0966564
0.0713871
0.0554355
0.0607922
0.0581835
0.0708771
0.16457
0.0723794
0.0696521
0.114482
0.0646587
0.0653984
0.0651026
0.0632765
0.0570213
0.208638
0.0581888
0.13849
0.0974704
0.106209
0.0623427
0.0668419
0.0597572
0.0598442
0.0703742
0.0553627
0.0945774
0.0591482
0.169799
0.18924
0.0567247
0.0925684
0.059922
0.110019
0.0636107
0.0739825
0.0504118
0.0582144
0.0591114
0.0483327
0.0290066
0.0702589
0.158595
0.0864431
0.0626576
0.190571
0.109864
0.0647307
0.0517152
0.0533264
0.215402
0.058162
0.204265
0.111416
0.0655078
0.0732102
0.206505
0.10782
0.0575008
0.19821
0.0760415
0.0527971
0.100235
0.0580204
0.0464164
0.0578555
0.110388
0.0488759
0.0680742
0.0573218
0.0729591
0.0632009
0.0273527
0.0566046
0.0625022
0.0606827
0.0661358
0.0494391
0.0545759
0.182666
0.0605257
0.0574142
0.0557664
0.0652129
0.0555898
0.0497571
0.0809748
0.107569
0.0486306
0.0692264
0.0516125
0.0393558
0.0391886
0.102553
0.19869
0.0553085
0.0459776
0.100015
0.0608917
0.0836525
0.150451
0.0459827
0.0506148
0.0534898
0.0474546
0.19217
0.186367
0.0471179
0.103606
0.104803
0.096759
0.0417687
0.0411016
0.0495219
0.0531662
0.0460994
0.0559356
0.0817358
0.0556148
0.0404994
0.0545664
0.090311
0.173988
0.0532937
0.0595136
0.0556383
0.0537863
0.043761
0.0461588
0.058077
0.0919035
0.176473
0.0446868
0.108932
0.045369
0.162039
0.0450556
0.170757
0.109236
0.19238
0.0504408
0.194207
0.0510591
0.097155
0.0427256
0.0438857
0.151623
0.0836235
0.0390605
0.0782397
0.0761787
0.132553
0.0439069
0.0959946
0.0421056
0.138226
0.0316001
0.0484461
0.0385409
0.161926
0.155297
0.0859992
0.0819471
0.107005
0.0880278
0.17848
0.119553
0.0386092
0.0403411
0.0462016
0.0422107
0.141648
0.09094
0.0671279
0.0305442
0.0381705
0.0349432
0.0406669
0.0415903
0.0447128
0.0388551
0.112904
0.0747447
0.0360102
0.192538
0.0661021
0.0994426
0.0584379
0.0295687
0.0326428
0.0501081
0.026842
0.0366169
0.0302125
0.0363263
0.0634301
0.121461
0.0729068
0.185625
0.074442
0.127122
0.138057
0.0710243
0.114781
0.143873
0.0806653
0.0748103
0.12774
0.164687
0.116042
0.071021
0.137292
0.0782812
0.0703346
0.0386405
0.0496235
0.0572073
0.0885032
0.105245
0.0672848
0.146211
0.0282219
0.0873028
0.0355374
0.039569
0.0376709
0.0872647
0.0763288
0.0642476
0.0485156
0.0614967
0.039073
0.0309854
0.0690614
0.0528232
0.0300703
0.0671326
0.0815096
0.0881687
0.0652051
0.251232
0.0383461
0.268207
0.0715748
0.0238427
0.0679469
0.0591024
0.307172
0.0494618
0.0406601
0.0688245
0.0824905
0.0861855
0.264347
0.180213
0.300788
0.167907
0.232609
0.201915
0.0655495
0.1614
0.0613322
0.15159
0.0961532
0.123737
0.175063
0.0418592
0.0738964
0.15713
0.443558
0.494451
0.064263
0.0671759
0.232359
0.0454358
0.0878391
0.0324437
0.0237324
0.0772714
0.12295
0.121859
0.0912665
0.122807
0.113348
0.0887133
0.0996661
0.100679
0.0907698
0.0607146
0.0437606
0.0253391
0.0882301
0.14707
0.0832833
0.246261
0.0247811
0.0317572
0.0894596
0.046364
0.0276767
0.0331586
0.0631357
0.0775309
0.0261701
0.0332985
0.0353468
0.0875748
0.0887259
0.0366418
0.048549
0.103893
0.0364019
0.0900372
0.0341068
0.145886
0.155048
0.0655207
0.0516581
0.0909967
0.0234892
0.0266465
0.120754
0.0542517
0.0889575
0.0250237
0.0891166
0.057589
0.0784537
0.0604539
0.0895046
0.0376282
0.0687747
0.0411049
0.0250574
0.0276494
0.211719
0.0664078
0.0892995
0.189835
0.0903464
)
;

boundaryField
{
    patch0
    {
        type            epsilonWallFunction;
        value           nonuniform List<scalar> 
4010
(
0.0650852
0.0650852
0.07263
0.07263
0.0883845
0.0883845
0.0877869
0.0877869
0.0748029
0.0748029
0.0867113
0.0867113
0.0867354
0.0867354
0.0864455
0.0864455
0.0871115
0.0871115
0.0888381
0.0888381
0.0878783
0.0878783
0.0885178
0.0885178
0.0355634
0.0355634
0.0899966
0.0899966
0.0880571
0.0880571
0.085955
0.085955
0.0371351
0.0371351
0.0902384
0.0902384
0.0605381
0.0605381
0.0910637
0.0910637
0.0256062
0.0256062
0.0583119
0.0583119
0.0552789
0.0552789
0.0909415
0.0909415
0.0606624
0.0606624
0.0642224
0.0642224
0.0670862
0.0670862
0.0849433
0.0849433
0.0734873
0.0734873
0.0778932
0.0778932
0.0477261
0.0477261
0.0597587
0.0597587
0.0564248
0.0564248
0.0421044
0.0421044
0.0865693
0.0865693
0.0587022
0.0587022
0.058588
0.058588
0.0790901
0.0790901
0.0701453
0.0701453
0.0436165
0.0436165
0.0605256
0.0605256
0.028541
0.028541
0.0613506
0.0613506
0.0542295
0.0542295
0.0832355
0.0832355
0.0617378
0.0617378
0.0674382
0.0674382
0.0881356
0.0881356
0.0226127
0.0226127
0.0217098
0.0217098
0.0749083
0.0749083
0.0304112
0.0304112
0.0584935
0.0584935
0.0727287
0.0727287
0.0483016
0.0483016
0.0888609
0.0888609
0.0592653
0.0592653
0.0866041
0.0866041
0.0864079
0.0864079
0.0803719
0.0803719
0.0628671
0.0628671
0.0870971
0.0870971
0.0611887
0.0611887
0.0681829
0.0681829
0.0697263
0.0697263
0.0890411
0.0890411
0.0901266
0.0901266
0.0576233
0.0576233
0.071008
0.071008
0.0708122
0.0708122
0.0250804
0.0250804
0.0868791
0.0868791
0.0642968
0.0642968
0.0814336
0.0814336
0.0801169
0.0801169
0.0356861
0.0356861
0.0891677
0.0891677
0.0828173
0.0828173
0.0879703
0.0879703
0.0692026
0.0692026
0.0881512
0.0881512
0.0719009
0.0719009
0.0792864
0.0792864
0.0248494
0.0248494
0.0585275
0.0585275
0.060565
0.060565
0.0875317
0.0875317
0.0893737
0.0893737
0.0210111
0.0210111
0.0247414
0.0247414
0.0901
0.0901
0.0708142
0.0708142
0.058862
0.058862
0.0615668
0.0615668
0.0274619
0.0274619
0.0607086
0.0607086
0.0891581
0.0891581
0.0886228
0.0886228
0.0803715
0.0803715
0.0284537
0.0284537
0.0883303
0.0883303
0.0268646
0.0268646
0.0815445
0.0815445
0.0754151
0.0754151
0.0638311
0.0638311
0.0863551
0.0863551
0.0862909
0.0862909
0.0576091
0.0576091
0.0792
0.0792
0.0670234
0.0670234
0.0887825
0.0887825
0.0772378
0.0772378
0.0794043
0.0794043
0.0819616
0.0819616
0.0882889
0.0882889
0.0216058
0.0216058
0.0883084
0.0883084
0.0857556
0.0857556
0.0749538
0.0749538
0.0889474
0.0889474
0.0512437
0.0512437
0.0747737
0.0747737
0.0244359
0.0244359
0.0213714
0.0213714
0.0893693
0.0893693
0.0687513
0.0687513
0.0398928
0.0398928
0.0822118
0.0822118
0.0749682
0.0749682
0.118692
0.118692
0.0887083
0.0887083
0.0882871
0.0882871
0.272061
0.272061
0.0828226
0.0828226
0.0296682
0.0296682
0.0752879
0.0752879
0.0831856
0.0831856
0.0829153
0.0829153
0.0912764
0.0912764
0.0840743
0.0840743
0.0891021
0.0891021
0.0893584
0.0893584
0.596151
0.596151
0.596151
0.272483
0.272483
0.272483
0.0869693
0.0869693
0.0582172
0.0582172
0.0587256
0.0587256
0.0288534
0.0288534
0.0790469
0.0790469
0.0771419
0.0771419
0.0720476
0.0720476
0.151217
0.151217
0.151217
0.0371286
0.0371286
0.0878623
0.0878623
0.0863803
0.0863803
0.0677012
0.0677012
0.0739324
0.0739324
0.0870473
0.0870473
0.088275
0.088275
0.521972
0.521972
0.0825119
0.0825119
0.0399628
0.0399628
0.0871752
0.0871752
0.0788907
0.0788907
0.0671827
0.0671827
0.0754136
0.0754136
0.0771161
0.0771161
0.0947457
0.0947457
0.0887759
0.0887759
0.0806565
0.0806565
0.062054
0.062054
0.0858891
0.0858891
0.0854854
0.0854854
0.0762407
0.0762407
0.0894214
0.0894214
0.0458002
0.0458002
0.079549
0.079549
0.0798991
0.0798991
0.0636711
0.0636711
0.0861521
0.0861521
0.0618979
0.0618979
0.0879932
0.0879932
0.0859895
0.0859895
0.0758362
0.0758362
0.0221501
0.0221501
0.0787757
0.0787757
0.0394165
0.0394165
0.0693115
0.0693115
0.0888205
0.0888205
0.0847573
0.0847573
0.0525898
0.0525898
0.0862212
0.0862212
0.0884231
0.0884231
0.0857875
0.0857875
0.0834326
0.0834326
0.159952
0.159952
0.159952
0.0753125
0.0753125
0.0464486
0.0464486
0.0538706
0.0538706
0.0434183
0.0434183
0.18193
0.18193
0.0798956
0.0798956
0.0833312
0.0833312
0.0872224
0.0872224
0.0701296
0.0701296
0.0613238
0.0613238
0.086378
0.086378
0.0354301
0.0354301
0.0321543
0.0321543
0.247934
0.247934
0.247934
0.0836805
0.0836805
0.0853859
0.0853859
0.0917377
0.0917377
0.0823997
0.0823997
0.0684706
0.0684706
0.0856326
0.0856326
0.0784111
0.0784111
0.0519951
0.0519951
0.0870356
0.0870356
0.0804777
0.0804777
0.060334
0.060334
0.0780677
0.0780677
0.0825543
0.0825543
0.0917548
0.0917548
0.0879917
0.0879917
0.0743815
0.0743815
0.0883494
0.0883494
0.0869333
0.0869333
0.0860363
0.0860363
0.0448206
0.0448206
0.193777
0.193777
0.0867673
0.0867673
0.0537728
0.0537728
0.106266
0.106266
0.0797217
0.0797217
0.429776
0.429776
0.429776
0.09131
0.09131
0.088861
0.088861
0.0871469
0.0871469
0.169427
0.169427
0.169427
0.088295
0.088295
0.0561502
0.0561502
0.0909094
0.0909094
0.0365182
0.0365182
0.44164
0.44164
0.0302033
0.0302033
0.0897641
0.0897641
0.0891982
0.0891982
0.0853922
0.0853922
0.085869
0.085869
0.0833371
0.0833371
0.103829
0.103829
0.085626
0.085626
0.086091
0.086091
0.088639
0.088639
0.0912495
0.0912495
0.0641326
0.0641326
0.0535837
0.0535837
0.0599247
0.0599247
0.0896846
0.0896846
0.0685809
0.0685809
0.0867893
0.0867893
0.0753544
0.0753544
0.0865038
0.0865038
0.0612523
0.0612523
0.0754391
0.0754391
0.0337569
0.0337569
0.0832572
0.0832572
0.0468378
0.0468378
0.230747
0.230747
0.0449319
0.0449319
0.0734246
0.0734246
0.0562137
0.0562137
0.0588312
0.0588312
0.0863045
0.0863045
0.0877438
0.0877438
0.0903215
0.0903215
0.0787349
0.0787349
0.0879463
0.0879463
0.0494246
0.0494246
0.167583
0.167583
0.251308
0.251308
0.251308
0.0886723
0.0886723
0.0869227
0.0869227
0.0492809
0.0492809
0.084433
0.084433
0.0885916
0.0885916
0.117793
0.117793
0.0912623
0.0912623
0.056275
0.056275
0.0871003
0.0871003
0.0660464
0.0660464
0.0829386
0.0829386
0.0908742
0.0908742
0.0192769
0.0192769
0.0702105
0.0702105
0.0903497
0.0903497
0.0356863
0.0356863
0.0810954
0.0810954
0.0908696
0.0908696
0.210876
0.210876
0.210876
0.0878226
0.0878226
0.0903097
0.0903097
0.0793009
0.0793009
0.0915611
0.0915611
0.0640071
0.0640071
0.039308
0.039308
0.0898996
0.0898996
0.0545919
0.0545919
0.0840029
0.0840029
0.0320327
0.0320327
0.0785099
0.0785099
0.08687
0.08687
0.0634101
0.0634101
0.0885968
0.0885968
0.0405794
0.0405794
0.0680712
0.0680712
0.0916767
0.0916767
0.0873018
0.0873018
0.0764131
0.0764131
0.0710064
0.0710064
0.0466988
0.0466988
0.0866985
0.0866985
0.0762843
0.0762843
0.0683779
0.0683779
0.0869339
0.0869339
0.0633235
0.0633235
0.0590201
0.0590201
0.0886414
0.0886414
0.0889556
0.0889556
0.0502432
0.0502432
0.089842
0.089842
0.0665938
0.0665938
0.0916656
0.0916656
0.0765383
0.0765383
0.0818317
0.0818317
0.0844791
0.0844791
0.087139
0.087139
0.0882471
0.0882471
0.0867494
0.0867494
0.0862162
0.0862162
0.0793175
0.0793175
0.0634908
0.0634908
0.0372517
0.0372517
0.0897368
0.0897368
0.0859105
0.0859105
0.229093
0.229093
0.0891271
0.0891271
0.0789121
0.0789121
0.0630764
0.0630764
0.0615695
0.0615695
0.455057
0.455057
0.187563
0.187563
0.0901038
0.0901038
0.031457
0.031457
0.0840772
0.0840772
0.0238425
0.0238425
0.0923549
0.0923549
0.0541359
0.0541359
0.050487
0.050487
0.084917
0.084917
0.0903721
0.0903721
0.0899017
0.0899017
0.0859097
0.0859097
0.0618413
0.0618413
0.0862846
0.0862846
0.0654808
0.0654808
0.0485874
0.0485874
0.0882461
0.0882461
0.087473
0.087473
0.0891656
0.0891656
0.0755148
0.0755148
0.0573423
0.0573423
0.0886998
0.0886998
0.069052
0.069052
0.0623061
0.0623061
0.0901165
0.0901165
0.0887778
0.0887778
0.0634741
0.0634741
0.0885278
0.0885278
0.0863009
0.0863009
0.0823856
0.0823856
0.0626399
0.0626399
0.0817212
0.0817212
0.0489315
0.0489315
0.0888714
0.0888714
0.0740909
0.0740909
0.0875777
0.0875777
0.0669303
0.0669303
0.0870667
0.0870667
0.209422
0.209422
0.0694709
0.0694709
0.0695863
0.0695863
0.0893259
0.0893259
0.0890718
0.0890718
0.233785
0.233785
0.233785
0.06379
0.06379
0.065189
0.065189
0.0890733
0.0890733
0.0855355
0.0855355
0.0621779
0.0621779
0.07778
0.07778
0.0393023
0.0393023
0.0514118
0.0514118
0.23015
0.23015
0.23015
0.083328
0.083328
0.0881854
0.0881854
0.0889566
0.0889566
0.0558652
0.0558652
0.0632365
0.0632365
0.0838844
0.0838844
0.0725191
0.0725191
0.0923818
0.0923818
0.0883632
0.0883632
0.0897665
0.0897665
0.0798849
0.0798849
0.0868382
0.0868382
0.089598
0.089598
0.0663015
0.0663015
0.0884392
0.0884392
0.0896171
0.0896171
0.0507461
0.0507461
0.087765
0.087765
0.0338492
0.0338492
0.06361
0.06361
0.088901
0.088901
0.0885393
0.0885393
0.0605119
0.0605119
0.0683335
0.0683335
0.0738929
0.0738929
0.0842147
0.0842147
0.0862007
0.0862007
0.0772404
0.0772404
0.0757739
0.0757739
0.0890885
0.0890885
0.0716483
0.0716483
0.0887344
0.0887344
0.0425255
0.0425255
0.0896113
0.0896113
0.0646212
0.0646212
0.0503792
0.0503792
0.0669739
0.0669739
0.0808019
0.0808019
0.0645853
0.0645853
0.0880261
0.0880261
0.409983
0.409983
0.409983
0.0859096
0.0859096
0.0749369
0.0749369
0.0684203
0.0684203
0.0863094
0.0863094
0.0885138
0.0885138
0.0710462
0.0710462
0.0844725
0.0844725
0.0894788
0.0894788
0.0657817
0.0657817
0.0741152
0.0741152
0.0880274
0.0880274
0.0897042
0.0897042
0.0772407
0.0772407
0.0854442
0.0854442
0.0842482
0.0842482
0.0678872
0.0678872
0.0482791
0.0482791
0.0778876
0.0778876
0.0411442
0.0411442
0.0868655
0.0868655
0.0880172
0.0880172
0.0897062
0.0897062
0.0910256
0.0910256
0.0860941
0.0860941
0.0644667
0.0644667
0.0744661
0.0744661
0.0677838
0.0677838
0.0877628
0.0877628
0.0537724
0.0537724
0.082957
0.082957
0.0563655
0.0563655
0.0917159
0.0917159
0.0874246
0.0874246
0.0860363
0.0860363
0.0850169
0.0850169
0.0909338
0.0909338
0.0816324
0.0816324
0.0875093
0.0875093
0.0698443
0.0698443
0.0650814
0.0650814
0.0716425
0.0716425
0.0882619
0.0882619
0.0766901
0.0766901
0.0885932
0.0885932
0.044094
0.044094
0.075629
0.075629
0.0761943
0.0761943
0.0878051
0.0878051
0.088409
0.088409
0.0868056
0.0868056
0.0857199
0.0857199
0.0832277
0.0832277
0.0700516
0.0700516
0.0758745
0.0758745
0.0883958
0.0883958
0.0893852
0.0893852
0.0512228
0.0512228
0.0667336
0.0667336
0.0370781
0.0370781
0.0808045
0.0808045
0.0890574
0.0890574
0.066724
0.066724
0.0731914
0.0731914
0.0876785
0.0876785
0.0788269
0.0788269
0.0862009
0.0862009
0.0839204
0.0839204
0.0838988
0.0838988
0.0855601
0.0855601
0.0855444
0.0855444
0.0687577
0.0687577
0.0728243
0.0728243
0.0916743
0.0916743
0.0857546
0.0857546
0.0779968