/*--------------------------------*- C++ -*----------------------------------*\
  =========                 |
  \\      /  F ield         | OpenFOAM: The Open Source CFD Toolbox
   \\    /   O peration     | Website:  https://openfoam.org
    \\  /    A nd           | Version:  8
     \\/     M anipulation  |
\*---------------------------------------------------------------------------*/
FoamFile
{
    version     2.0;
    format      ascii;
    class       volScalarField;
    location    "0.4";
    object      k;
}
// * * * * * * * * * * * * * * * * * * * * * * * * * * * * * * * * * * * * * //

dimensions      [0 2 -2 0 0 0 0];

internalField   nonuniform List<scalar> 
1924
(
0.039887
0.0429331
0.0492556
0.0490731
0.0438302
0.048719
0.048754
0.0486835
0.0489276
0.0493667
0.0492213
0.0494381
0.0266774
0.0499811
0.0492263
0.0484547
0.0274632
0.0500544
0.0379806
0.0503552
0.0214957
0.0373113
0.035797
0.0502999
0.0383176
0.0400129
0.0412232
0.0478108
0.0434363
0.0451855
0.0324157
0.0379854
0.0363406
0.0298151
0.0484517
0.0372778
0.0375856
0.0456058
0.0421394
0.0305368
0.0384453
0.0230573
0.0388047
0.0353465
0.0473936
0.0388514
0.0408283
0.0491721
0.0198166
0.0192739
0.0440819
0.0240727
0.0373555
0.0432306
0.0332384
0.0493617
0.0374335
0.0486018
0.048466
0.0464306
0.0390785
0.0488788
0.0383474
0.0413733
0.0420657
0.0494939
0.0500825
0.0367648
0.0425695
0.0424043
0.0213146
0.0488048
0.0397944
0.0465967
0.0460916
0.0269651
0.0495519
0.0471471
0.0491185
0.0417238
0.0492092
0.0431604
0.0458617
0.021083
0.0372197
0.0379899
0.0488506
0.0497145
0.0188579
0.0211164
0.0500834
0.0426946
0.0377213
0.0389529
0.0226055
0.0383522
0.0495553
0.0493968
0.0464341
0.0231011
0.0492037
0.0222362
0.0469058
0.0445096
0.0399954
0.0484901
0.048499
0.0372703
0.0459591
0.0412042
0.0494402
0.0450939
0.0456464
0.0468351
0.0492313
0.0192257
0.0492194
0.0483723
0.0440008
0.0494732
0.0340821
0.0231614
0.0208312
0.0190985
0.0497774
0.0419014
0.0289987
0.0469205
0.0442882
0.0299265
0.0494155
0.0492002
0.0247001
0.0471944
0.0237187
0.0445008
0.0472299
0.0471796
0.0504219
0.0474532
0.0494922
0.0497696
0.0358319
0.0207224
0.0487809
0.0372581
0.0377822
0.0233609
0.0458866
0.044919
0.0430646
0.0233328
0.0277153
0.0490601
0.0486012
0.0415036
0.022988
0.0486687
0.0492867
0.038342
0.0470293
0.029154
0.0488349
0.0240049
0.0409307
0.0445649
0.0452078
0.0225471
0.0494106
0.0465105
0.0387878
0.048475
0.0481597
0.0448279
0.0496128
0.0319771
0.0458605
0.0173199
0.0393608
0.0485176
0.0390819
0.049208
0.0483504
0.0447002
0.0195514
0.0454076
0.0289177
0.0421357
0.0494404
0.0478858
0.0350586
0.0486188
0.0493356
0.0484322
0.0475656
0.0242244
0.0445164
0.0322595
0.035624
0.0307767
0.028725
0.0458307
0.0474923
0.0490116
0.0420067
0.0388199
0.0487015
0.0268943
0.0251948
0.0190513
0.0249691
0.0481964
0.0505934
0.0471787
0.0417816
0.0482116
0.0455779
0.0347662
0.0489582
0.0462549
0.0384114
0.045413
0.0472158
0.0506015
0.0492818
0.044143
0.0493308
0.0487164
0.0484772
0.0314234
0.0247866
0.0488598
0.0355601
0.0191108
0.0462038
0.0281284
0.050431
0.0496393
0.0488318
0.0251741
0.0493049
0.0366134
0.050281
0.0274147
0.0431086
0.0241406
0.0499316
0.0495603
0.048122
0.0483051
0.0472672
0.0260005
0.0483377
0.0484697
0.0493726
0.0504092
0.0399724
0.0354423
0.0382221
0.0499238
0.041828
0.048724
0.0444674
0.0485433
0.0386096
0.0442823
0.0257847
0.0473137
0.032465
0.0340124
0.0313975
0.043525
0.0363835
0.0377621
0.0486821
0.049054
0.0501152
0.0458365
0.0490948
0.0336113
0.0298833
0.0261199
0.0495627
0.0488257
0.0331851
0.0477497
0.0494083
0.0278217
0.0504934
0.0366776
0.0488288
0.0405752
0.0474431
0.0502671
0.017786
0.0421711
0.0500787
0.0269192
0.0464878
0.0502656
0.0283147
0.0490499
0.0500558
0.0458649
0.0505649
0.0399823
0.0284895
0.0498982
0.035909
0.047681
0.0250757
0.0454996
0.0488083
0.0393605
0.0493777
0.029112
0.0416087
0.0506246
0.0489061
0.0449313
0.0425369
0.0322162
0.0486837
0.0446246
0.0417926
0.0487269
0.039679
0.0378632
0.0493757
0.0495545
0.0339848
0.0499806
0.0406143
0.0505886
0.044737
0.047034
0.0479853
0.0489236
0.0493761
0.048718
0.0484438
0.0458185
0.039461
0.0276947
0.0498524
0.0484298
0.0265177
0.0496932
0.0456846
0.0395836
0.0388349
0.0421102
0.0305815
0.0499793
0.0247011
0.0476233
0.0205221
0.0508706
0.0356198
0.0339287
0.0482468
0.050079
0.0499019
0.048533
0.038886
0.0486358
0.0402252
0.0330095
0.049369
0.0490491
0.0496223
0.0445704
0.0370554
0.0494611
0.0419775
0.0146991
0.049986
0.0495019
0.0394864
0.0494674
0.0486214
0.0469747
0.0393862
0.0469462
0.0333156
0.0495059
0.0437688
0.0491462
0.0411158
0.0489478
0.0304261
0.0418145
0.0422666
0.0497973
0.0497225
0.0164621
0.0397964
0.0401703
0.0495866
0.048278
0.0389383
0.0452099
0.028616
0.0345832
0.0198559
0.0475419
0.049237
0.0496629
0.0363677
0.0395214
0.0478365
0.0430715
0.0508643
0.0494662
0.0499763
0.046085
0.0487032
0.0497906
0.0403671
0.0493241
0.0497953
0.0339835
0.0490682
0.0259258
0.0395988
0.0495269
0.0493513
0.0383989
0.0414031
0.0438885
0.0478908
0.0484496
0.0451909
0.0443975
0.0497234
0.0430097
0.0494603
0.0300382
0.0499306
0.0399677
0.0339745
0.0411257
0.0465906
0.0399016
0.0492829
0.0245782
0.04859
0.0441046
0.0417908
0.0486815
0.0494092
0.0424875
0.0479499
0.0497416
0.0406102
0.0441111
0.0491866
0.0498324
0.045013
0.0482661
0.0476929
0.0412697
0.0327075
0.0452463
0.0295061
0.0488845
0.0493152
0.0499562
0.0504269
0.0484471
0.0399967
0.0438879
0.0412283
0.0490795
0.0352466
0.0471917
0.0365334
0.0506191
0.049057
0.0484466
0.0482293
0.0504165
0.0468826
0.0491214
0.0420393
0.0401973
0.0429915
0.049297
0.0449514
0.0493894
0.0307648
0.0445386
0.0446008
0.0491195
0.0493437
0.0487046
0.0483883
0.0474929
0.0423484
0.0444806
0.0493359
0.0497182
0.0342643
0.0408051
0.0274643
0.0464381
0.0495871
0.0409778
0.0433805
0.0490616
0.0456021
0.0484643
0.0477682
0.0477362
0.0483673
0.0483474
0.0416005
0.0435867
0.0506688
0.0483395
0.0453237
0.0495209
0.0476978
0.049006
0.0487493
0.0452665
0.0412568
0.0410923
0.0408455
0.0502644
0.0455399
0.050505
0.0442005
0.0403138
0.0309145
0.0487267
0.0503688
0.0362065
0.0332831
0.0410701
0.0429434
0.0442271
0.0436507
0.0447007
0.0486591
0.0446766
0.0393095
0.0403053
0.0488365
0.0496938
0.0443264
0.0466458
0.0491381
0.04504
0.0427558
0.0416588
0.0416784
0.0446022
0.0436636
0.0357363
0.0414306
0.0455303
0.0324853
0.0469253
0.035098
0.0386716
0.0472396
0.049149
0.04045
0.0438021
0.048481
0.0453199
0.0422888
0.0474249
0.0417389
0.0480332
0.0415923
0.0284985
0.0488606
0.0431
0.0424728
0.0482974
0.0508469
0.0475366
0.0425427
0.0432681
0.0491218
0.0456205
0.0477309
0.045579
0.0415408
0.0453531
0.0305908
0.043643
0.0446206
0.0488584
0.0480521
0.0492204
0.0485841
0.0456301
0.033548
0.049072
0.0502065
0.0368423
0.0447399
0.0498629
0.0447965
0.0457018
0.036577
0.0452392
0.0417976
0.049587
0.0426625
0.0493647
0.0433557
0.0486625
0.0486221
0.0319383
0.0385966
0.0412896
0.0485496
0.0472913
0.049076
0.0423089
0.050597
0.0400806
0.043617
0.048412
0.0461891
0.0434999
0.0486356
0.0445438
0.0490859
0.0456676
0.0451577
0.0359745
0.0441695
0.0412893
0.0453364
0.0484441
0.0463336
0.046849
0.044443
0.0427146
0.0465197
0.0493044
0.0430455
0.0488661
0.0454641
0.0359612
0.045538
0.0470269
0.0486293
0.049488
0.0437482
0.0474315
0.0455337
0.0449349
0.0426328
0.0443667
0.0413825
0.0449523
0.0404014
0.0477725
0.0475561
0.0354056
0.042684
0.0485774
0.0454804
0.044962
0.0441104
0.0457093
0.0355249
0.0494477
0.0492131
0.0473964
0.050684
0.0491885
0.044995
0.0443892
0.0486271
0.0485758
0.0484989
0.0483514
0.0430476
0.0505218
0.0479507
0.0371962
0.048357
0.0448456
0.0454348
0.0501745
0.0492491
0.044392
0.0454401
0.048822
0.0448676
0.0420682
0.0447601
0.0439091
0.0457982
0.0454126
0.0452809
0.0302075
0.0429643
0.0454854
0.0464817
0.0440376
0.0483241
0.0453993
0.0454716
0.0451852
0.0467272
0.0377863
0.04328
0.0458421
0.0471077
0.0453348
0.0487456
0.0300156
0.040883
0.048543
0.0449671
0.0451925
0.0490627
0.0125616
0.0111222
0.0371207
0.0338172
0.0477582
0.0472769
0.04526
0.0407791
0.0445965
0.0483458
0.043475
0.0480363
0.0458822
0.0484926
0.0452219
0.0437752
0.0476128
0.0450273
0.0180363
0.0494144
0.0280828
0.0453171
0.0453229
0.045473
0.047484
0.0440426
0.0466379
0.0506032
0.0365022
0.0400304
0.0493369
0.0366673
0.0392562
0.0384847
0.0485678
0.036297
0.0477633
0.0485104
0.0459876
0.0444918
0.0455777
0.044267
0.0452365
0.045562
0.045325
0.0489055
0.0450803
0.0435642
0.0468666
0.0311393
0.0480694
0.0454693
0.0441902
0.0456027
0.0465193
0.0450476
0.0420926
0.05022
0.0337161
0.0506084
0.0351079
0.0491625
0.0458443
0.0482299
0.0433986
0.0456774
0.0449209
0.0483069
0.0470411
0.0452
0.0452411
0.0481049
0.0394649
0.0460786
0.0450957
0.0361891
0.0347894
0.0444359
0.034446
0.0420011
0.048962
0.0351351
0.0488186
0.0473676
0.0454754
0.0357955
0.0476415
0.0434237
0.0215283
0.0452207
0.0457262
0.0486027
0.0449402
0.0446254
0.0429754
0.0445719
0.049783
0.048428
0.0452208
0.048058
0.047481
0.0454925
0.0483118
0.0475064
0.0457476
0.049107
0.0420583
0.0453216
0.045186
0.0452481
0.0448933
0.040998
0.0485919
0.0461709
0.0172402
0.0495891
0.0235006
0.0457383
0.0449193
0.022217
0.0444118
0.045951
0.0455139
0.048816
0.0446875
0.0500858
0.0477791
0.0454958
0.0409147
0.0490015
0.0466673
0.04418
0.0454167
0.0425753
0.0359902
0.0483981
0.0483463
0.0467677
0.0355376
0.0442783
0.0470875
0.0434187
0.0449765
0.0455775
0.0456881
0.0455429
0.0448711
0.04384
0.050167
0.0455175
0.0354469
0.0408634
0.0447452
0.0167611
0.0464409
0.0316006
0.0450273
0.0487599
0.0334185
0.0466027
0.0454325
0.0472112
0.0498821
0.047907
0.0481786
0.045606
0.042381
0.0268036
0.0478038
0.0477077
0.0477764
0.0473988
0.0489709
0.0438781
0.0489527
0.0455195
0.0335262
0.0451709
0.0366704
0.0455094
0.0455835
0.0478802
0.0445054
0.0459099
0.0477872
0.0457424
0.0344393
0.0473462
0.025967
0.038801
0.0474626
0.0448211
0.0454212
0.0453162
0.0358536
0.0343798
0.048854
0.0456817
0.0391401
0.0462354
0.0454632
0.041101
0.0496259
0.0497774
0.0463868
0.0454526
0.0488753
0.0457017
0.0435124
0.0467853
0.0326236
0.0486834
0.0438242
0.0464782
0.0475695
0.0355577
0.0308862
0.0457764
0.042072
0.024651
0.0466768
0.0455672
0.0468794
0.0450192
0.0488541
0.042927
0.045731
0.0249707
0.0440828
0.0483532
0.0205497
0.0434958
0.0101444
0.0450744
0.048799
0.0428027
0.0428682
0.0443201
0.0507107
0.041914
0.047122
0.0479037
0.0457527
0.0461039
0.0427955
0.0354192
0.0445386
0.034218
0.0459155
0.0484146
0.0306376
0.0464742
0.0463195
0.0480788
0.0316771
0.0487625
0.0464228
0.0425116
0.044743
0.0460068
0.0477403
0.0456484
0.0344281
0.0303107
0.0429619
0.0381604
0.0472042
0.0416264
0.0448941
0.0432616
0.0339754
0.042519
0.0484351
0.0485515
0.0448845
0.0459298
0.0438324
0.0421789
0.048705
0.0435346
0.0340354
0.0484418
0.0498953
0.0470565
0.0354124
0.0449832
0.0441415
0.0486491
0.0466306
0.0470577
0.0461327
0.0466794
0.0465527
0.0437973
0.045801
0.0472265
0.047125
0.0473256
0.017182
0.033688
0.0357134
0.0467798
0.0440572
0.0473535
0.0481944
0.0440726
0.0390676
0.0417514
0.0458371
0.0481679
0.0359059
0.0381031
0.0442885
0.0501178
0.0425964
0.0456851
0.0419827
0.0483591
0.050184
0.0478197
0.0485734
0.0462053
0.0432352
0.0463889
0.0462698
0.0468478
0.0444597
0.0472934
0.0442377
0.0449873
0.0490863
0.0507302
0.0460965
0.0471699
0.0474131
0.0411266
0.0464348
0.0412559
0.0414793
0.0288309
0.0442141
0.0337775
0.0478162
0.0457647
0.042249
0.041099
0.0482258
0.0419877
0.0445439
0.0418128
0.0464841
0.0469747
0.0244106
0.0480175
0.0421246
0.0456534
0.0226939
0.0465333
0.0424119
0.0285543
0.0411319
0.0407136
0.0363702
0.0465091
0.048161
0.0462977
0.0426221
0.0481165
0.0211536
0.024708
0.0448664
0.0465786
0.0477279
0.049212
0.0470169
0.0429247
0.0398872
0.0427259
0.0398676
0.0218419
0.0461206
0.0283096
0.0393297
0.0462467
0.0480006
0.0460461
0.043167
0.0477403
0.0150786
0.0176868
0.0508124
0.0428486
0.0445057
0.0465632
0.0402797
0.0455649
0.0463015
0.0405696
0.047625
0.046617
0.0458965
0.031854
0.0466271
0.0406645
0.0207969
0.0343663
0.0479104
0.047376
0.0475654
0.0410372
0.0394907
0.0454731
0.0456853
0.0433967
0.0372673
0.0413672
0.047541
0.0195925
0.0350304
0.0387113
0.0426766
0.0213801
0.0445606
0.0416094
0.0252052
0.0155276
0.0466611
0.042617
0.0474918
0.0479397
0.0469942
0.0466984
0.0430431
0.0469757
0.0425321
0.0462889
0.0462659
0.0202864
0.0210627
0.044309
0.0160224
0.0401068
0.0463235
0.0372385
0.041716
0.0465544
0.0389162
0.037934
0.0409359
0.0505429
0.0479699
0.0463337
0.0293374
0.0483965
0.0477282
0.047365
0.0373372
0.0469657
0.0384901
0.0459935
0.036154
0.0239429
0.0424164
0.0458089
0.045226
0.0207394
0.0365376
0.045752
0.0276184
0.0207104
0.0463647
0.034823
0.0450998
0.0369069
0.0378377
0.0469585
0.0467759
0.0463574
0.0357851
0.046605
0.0372499
0.0440956
0.0366531
0.0352037
0.0466975
0.0375039
0.0462759
0.0416225
0.0468746
0.0295001
0.0405694
0.0457443
0.04163
0.0454608
0.0122286
0.0100744
0.045955
0.0438978
0.0376227
0.0426939
0.046662
0.0416876
0.036597
0.0283498
0.0207791
0.0453357
0.0419028
0.0459886
0.0459726
0.0462043
0.0464599
0.045588
0.0354713
0.0465801
0.0331707
0.0464554
0.0469205
0.0462655
0.0362478
0.0340471
0.0461263
0.0375331
0.0460313
0.0336434
0.0235523
0.0460286
0.0341273
0.0466974
0.0346075
0.0464469
0.0205058
0.0433933
0.0330379
0.0275316
0.046053
0.0467586
0.0350448
0.019519
0.033963
0.0413087
0.0363725
0.0337467
0.0353846
0.0327599
0.0458551
0.0448028
0.0427211
0.0387836
0.0330903
0.0377814
0.0435697
0.045996
0.0446437
0.0344454
0.0394305
0.0354533
0.0460951
0.0437803
0.0234124
0.0465606
0.0213141
0.0453097
0.0448859
0.0459509
0.0432883
0.0444743
0.035557
0.0462648
0.0341614
0.0462345
0.0354677
0.0432115
0.0447025
0.0456272
0.037162
0.0216105
0.0453846
0.0412153
0.0334752
0.0459749
0.0444479
0.0361206
0.0459152
0.0193211
0.0323009
0.0423879
0.0490371
0.0196979
0.0378747
0.0407309
0.044738
0.0488945
0.0322426
0.0439179
0.0459136
0.0211417
0.0428894
0.0442402
0.0438994
0.0354817
0.0456738
0.0234506
0.0433726
0.0447702
0.0304654
0.045756
0.045793
0.0311038
0.0457058
0.0455735
0.0393261
0.0431385
0.0395911
0.0452095
0.0185082
0.0197904
0.0397344
0.0319157
0.0392429
0.018471
0.045617
0.0437078
0.027342
0.0455701
0.0364813
0.0420555
0.0458058
0.027895
0.0195914
0.0393048
0.0413646
0.0222055
0.0128089
0.011721
0.0348797
0.0353171
0.0381176
0.032857
0.0430376
0.0438827
0.0441336
0.0439646
0.0436403
0.0455811
0.0188379
0.0451836
0.0200531
0.0228756
0.0450123
0.040992
0.0318068
0.0193295
0.0443346
0.0297781
0.0426787
0.0214973
0.0309547
0.0216633
0.0454242
0.0228194
0.0353302
0.02818
0.0218432
0.0452383
0.0238774
0.0434291
0.0404956
0.0182225
0.0220089
0.0391921
0.0221796
0.0425802
0.0197706
0.0222898
0.0351044
0.0273628
0.0380188
0.03821
0.0255529
0.0192553
0.0223105
0.0449607
0.036819
0.045229
0.0448407
0.0381116
0.0398904
0.0364039
0.045096
0.0387125
0.0452207
0.0215979
0.037366
0.0265021
0.0436635
0.0425819
0.0452477
0.0370886
0.0296074
0.0173976
0.0312108
0.0221506
0.0455945
0.0450409
0.0451998
0.0355818
0.043113
0.0288106
0.0389933
0.0448905
0.0196318
0.042145
0.0402261
0.028719
0.0237666
0.0380715
0.0377804
0.0353034
0.0397859
0.0447411
0.0209559
0.0445366
0.0424982
0.0204437
0.0433396
0.044972
0.0214979
0.0373526
0.0438174
0.0425009
0.0217099
0.0357105
0.0438587
0.0420743
0.0200019
0.0446805
0.0344292
0.0366865
0.0445321
0.0168172
0.0443875
0.0365596
0.0436053
0.0443026
0.0446996
0.0345751
0.0318887
0.0428263
0.0282373
0.0440186
0.0271765
0.042768
0.0209987
0.0242992
0.0241499
0.0203943
0.0398177
0.0227237
0.0438402
0.0387374
0.0281186
0.0221126
0.016357
0.032122
0.0443179
0.0437405
0.04484
0.0312378
0.0413503
0.0416496
0.0195408
0.0430026
0.0312212
0.0437442
0.0433687
0.037475
0.0439485
0.0390937
0.0328312
0.0381028
0.0209464
0.0441194
0.0430719
0.0378204
0.0419454
0.0263512
0.0150367
0.0341357
0.0171938
0.0155141
0.042636
0.0161196
0.0435837
0.0390531
0.0167805
0.0424062
0.0239936
0.0174741
0.0428704
0.0371633
0.0189549
0.0181784
0.0188024
0.0414548
0.040023
0.0427995
0.0385248
0.0346561
0.0427303
0.0333554
0.0415649
0.0174314
0.0213873
0.0192776
0.0391759
0.0384335
0.0422025
0.0222574
0.0424544
0.0210016
0.0235094
0.0413714
0.0416253
0.0228536
0.018022
0.0337024
0.024967
0.0194824
0.0216856
0.0420183
0.0153565
0.0359754
0.0414576
0.0407666
0.0401055
0.0408197
0.014611
0.0140878
0.0371118
0.0415764
0.0136907
0.0413629
0.0199911
0.0415594
0.0333618
0.0191857
0.0217487
0.0228911
0.0237901
0.0333518
0.0365083
0.0417902
0.0402354
0.0410193
0.0442123
0.0350218
0.0385416
0.0434557
0.0406739
0.0133401
0.0426597
0.0360505
0.0383549
0.0150721
0.042467
0.0193347
0.0430815
0.0420207
0.0149734
0.0162491
0.0402378
0.0401148
0.0394015
0.0368269
0.0225563
0.0373428
0.0169904
0.021163
0.0226983
0.0390371
0.0408292
0.0379172
0.0379003
0.0422545
0.0360888
0.0210834
0.0376333
0.019586
0.0210336
0.0366837
0.0129452
0.0381041
0.0232086
0.0395086
0.043705
0.0338316
0.0372809
0.0377483
0.0329644
0.0233978
0.0422051
0.0188414
0.012366
0.0390974
0.0212227
0.0143331
0.0399365
0.0345229
0.0352533
0.0230693
0.0371731
0.0222318
0.0235036
0.0402916
0.0433912
0.0224169
0.0228879
0.036908
0.021801
0.0445269
0.0349385
0.0136909
0.0371501
0.0321147
0.0371035
0.02327
0.0331099
0.0413074
0.00943367
0.0110389
0.0393066
0.022497
0.0367138
0.0389999
0.0382667
0.0405219
0.0334789
0.0358133
0.0206202
0.0381871
0.0368803
0.0361433
0.0401338
0.0360677
0.033542
0.0188672
0.0143468
0.0330429
0.0417801
0.0343508
0.028686
0.0287073
0.0222005
0.0218177
0.0359436
0.0318509
0.0218203
0.0383238
0.0193629
0.0181534
0.0318686
0.0338961
0.0351437
0.0324432
0.021228
0.0207923
0.0323904
0.0222769
0.022533
0.0213275
0.0298212
0.0295362
0.0333875
0.0349947
0.031804
0.0147354
0.0119416
0.0361222
0.0292447
0.0356263
0.0204316
0.0199519
0.0350764
0.037743
0.0362856
0.0352763
0.0307697
0.0318683
0.0371267
0.020586
0.0200431
0.0311373
0.0230741
0.0315451
0.0190433
0.0313747
0.0197189
0.0231831
0.0213482
0.0337859
0.0213836
0.034069
0.0213339
0.0302163
0.0309063
0.0182174
0.0193055
0.0284731
0.0184821
0.0181406
0.0166356
0.0308525
0.0131117
0.0299746
0.0171235
0.0247461
0.0328905
0.0282592
0.0189207
0.0184611
0.0197563
0.019105
0.0228559
0.0199716
0.0203065
0.0155356
0.0282834
0.0291162
0.0318708
0.0300178
0.017303
0.0129295
0.016656
0.0241756
0.0280594
0.026458
0.0292626
0.0297861
0.0311806
0.0283747
0.0148709
0.0179052
0.0269703
0.0212677
0.0164946
0.0136555
0.0151855
0.02368
0.0252934
0.00861415
0.00902369
0.00699259
0.00614275
0.0110566
0.0101207
0.0156725
0.017584
0.0208436
0.017847
0.0161663
0.0171062
0.0172668
0.015086
0.0176001
0.0188792
0.0179347
0.0161511
0.0192199
0.0151415
0.0173116
0.0169613
0.0185053
0.0108318
0.007284
0.00864656
0.014946
0.0126887
0.0142372
0.0166485
0.0177098
0.0229579
0.0488508
0.0267666
0.0287824
0.0278346
0.0196193
0.0112895
0.0398127
0.0328187
0.0386601
0.00729723
0.0244541
0.0415855
0.0349466
0.023976
0.0164812
0.0180418
0.0491771
0.0402008
0.0234092
0.00712959
0.0244635
0.0426417
0.0205236
0.0413299
0.0375209
0.026779
0.0332485
0.0294017
0.0416856
0.0103903
0.0107104
0.0242127
0.0187426
0.027616
0.0178779
0.0222266
0.0202212
0.0403404
0.0276785
0.0385899
0.0156867
0.0116054
0.0137552
0.0292273
0.0298958
0.0436047
0.0168259
0.026671
0.028702
0.0398087
0.0410111
0.0293902
0.0315512
0.0490509
0.0251695
0.0204632
0.0177174
0.0148293
0.0264503
0.0189055
0.0270866
0.0218492
0.0185518
0.0200503
0.0114579
0.0106951
0.0383321
0.0307928
0.021275
0.0492055
0.0182077
0.0167632
0.0301275
0.0209363
0.024754
0.0179425
0.031935
0.0225451
0.0254769
0.0391297
0.0109274
0.0217949
0.0255321
0.0266105
0.0183878
0.0494436
0.0272493
0.0329356
0.0129135
0.0271164
0.0499502
0.0259409
0.0210963
0.016774
0.040133
0.034268
0.0503141
0.0203201
0.0220241
0.0136086
0.0354184
0.0495328
0.0211525
0.0495983
0.0368029
0.0171543
0.03802
0.0497468
0.0277237
0.041445
0.0294227
0.0212223
0.0226305
0.0161565
0.040451
0.0172212
0.0174593
0.0500691
)
;

boundaryField
{
    patch0
    {
        type            kqRWallFunction;
        value           nonuniform List<scalar> 
4010
(
0.039887
0.039887
0.0429331
0.0429331
0.0492556
0.0492556
0.0490731
0.0490731
0.0438302
0.0438302
0.048719
0.048719
0.048754
0.048754
0.0486835
0.0486835
0.0489276
0.0489276
0.0493667
0.0493667
0.0492213
0.0492213
0.0494381
0.0494381
0.0266774
0.0266774
0.0499811
0.0499811
0.0492263
0.0492263
0.0484547
0.0484547
0.0274632
0.0274632
0.0500544
0.0500544
0.0379806
0.0379806
0.0503552
0.0503552
0.0214957
0.0214957
0.0373113
0.0373113
0.035797
0.035797
0.0502999
0.0502999
0.0383176
0.0383176
0.0400129
0.0400129
0.0412232
0.0412232
0.0478108
0.0478108
0.0434363
0.0434363
0.0451855
0.0451855
0.0324157
0.0324157
0.0379854
0.0379854
0.0363406
0.0363406
0.0298151
0.0298151
0.0484517
0.0484517
0.0372778
0.0372778
0.0375856
0.0375856
0.0456058
0.0456058
0.0421394
0.0421394
0.0305368
0.0305368
0.0384453
0.0384453
0.0230573
0.0230573
0.0388047
0.0388047
0.0353465
0.0353465
0.0473936
0.0473936
0.0388514
0.0388514
0.0408283
0.0408283
0.0491721
0.0491721
0.0198166
0.0198166
0.0192739
0.0192739
0.0440819
0.0440819
0.0240727
0.0240727
0.0373555
0.0373555
0.0432306
0.0432306
0.0332384
0.0332384
0.0493617
0.0493617
0.0374335
0.0374335
0.0486018
0.0486018
0.048466
0.048466
0.0464306
0.0464306
0.0390785
0.0390785
0.0488788
0.0488788
0.0383474
0.0383474
0.0413733
0.0413733
0.0420657
0.0420657
0.0494939
0.0494939
0.0500825
0.0500825
0.0367648
0.0367648
0.0425695
0.0425695
0.0424043
0.0424043
0.0213146
0.0213146
0.0488048
0.0488048
0.0397944
0.0397944
0.0465967
0.0465967
0.0460916
0.0460916
0.0269651
0.0269651
0.0495519
0.0495519
0.0471471
0.0471471
0.0491185
0.0491185
0.0417238
0.0417238
0.0492092
0.0492092
0.0431604
0.0431604
0.0458617
0.0458617
0.021083
0.021083
0.0372197
0.0372197
0.0379899
0.0379899
0.0488506
0.0488506
0.0497145
0.0497145
0.0188579
0.0188579
0.0211164
0.0211164
0.0500834
0.0500834
0.0426946
0.0426946
0.0377213
0.0377213
0.0389529
0.0389529
0.0226055
0.0226055
0.0383522
0.0383522
0.0495553
0.0495553
0.0493968
0.0493968
0.0464341
0.0464341
0.0231011
0.0231011
0.0492037
0.0492037
0.0222362
0.0222362
0.0469058
0.0469058
0.0445096
0.0445096
0.0399954
0.0399954
0.0484901
0.0484901
0.048499
0.048499
0.0372703
0.0372703
0.0459591
0.0459591
0.0412042
0.0412042
0.0494402
0.0494402
0.0450939
0.0450939
0.0456464
0.0456464
0.0468351
0.0468351
0.0492313
0.0492313
0.0192257
0.0192257
0.0492194
0.0492194
0.0483723
0.0483723
0.0440008
0.0440008
0.0494732
0.0494732
0.0340821
0.0340821
0.0231614
0.0231614
0.0208312
0.0208312
0.0190985
0.0190985
0.0497774
0.0497774
0.0419014
0.0419014
0.0289987
0.0289987
0.0469205
0.0469205
0.0442882
0.0442882
0.0299265
0.0299265
0.0494155
0.0494155
0.0492002
0.0492002
0.0247001
0.0247001
0.0471944
0.0471944
0.0237187
0.0237187
0.0445008
0.0445008
0.0472299
0.0472299
0.0471796
0.0471796
0.0504219
0.0504219
0.0474532
0.0474532
0.0494922
0.0494922
0.0497696
0.0497696
0.0358319
0.0358319
0.0358319
0.0207224
0.0207224
0.0207224
0.0487809
0.0487809
0.0372581
0.0372581
0.0377822
0.0377822
0.0233609
0.0233609
0.0458866
0.0458866
0.044919
0.044919
0.0430646
0.0430646
0.0233328
0.0233328
0.0233328
0.0277153
0.0277153
0.0490601
0.0490601
0.0486012
0.0486012
0.0415036
0.0415036
0.022988
0.022988
0.0486687
0.0486687
0.0492867
0.0492867
0.038342
0.038342
0.0470293
0.0470293
0.029154
0.029154
0.0488349
0.0488349
0.0240049
0.0240049
0.0409307
0.0409307
0.0445649
0.0445649
0.0452078
0.0452078
0.0225471
0.0225471
0.0494106
0.0494106
0.0465105
0.0465105
0.0387878
0.0387878
0.048475
0.048475
0.0481597
0.0481597
0.0448279
0.0448279
0.0496128
0.0496128
0.0319771
0.0319771
0.0458605
0.0458605
0.0173199
0.0173199
0.0393608
0.0393608
0.0485176
0.0485176
0.0390819
0.0390819
0.049208
0.049208
0.0483504
0.0483504
0.0447002
0.0447002
0.0195514
0.0195514
0.0454076
0.0454076
0.0289177
0.0289177
0.0421357
0.0421357
0.0494404
0.0494404
0.0478858
0.0478858
0.0350586
0.0350586
0.0486188
0.0486188
0.0493356
0.0493356
0.0484322
0.0484322
0.0475656
0.0475656
0.0242244
0.0242244
0.0242244
0.0445164
0.0445164
0.0322595
0.0322595
0.035624
0.035624
0.0307767
0.0307767
0.028725
0.028725
0.0458307
0.0458307
0.0474923
0.0474923
0.0490116
0.0490116
0.0420067
0.0420067
0.0388199
0.0388199
0.0487015
0.0487015
0.0268943
0.0268943
0.0251948
0.0251948
0.0190513
0.0190513
0.0190513
0.0249691
0.0249691
0.0481964
0.0481964
0.0505934
0.0505934
0.0471787
0.0471787
0.0417816
0.0417816
0.0482116
0.0482116
0.0455779
0.0455779
0.0347662
0.0347662
0.0489582
0.0489582
0.0462549
0.0462549
0.0384114
0.0384114
0.045413
0.045413
0.0472158
0.0472158
0.0506015
0.0506015
0.0492818
0.0492818
0.044143
0.044143
0.0493308
0.0493308
0.0487164
0.0487164
0.0484772
0.0484772
0.0314234
0.0314234
0.0247866
0.0247866
0.0488598
0.0488598
0.0355601
0.0355601
0.0191108
0.0191108
0.0462038
0.0462038
0.0281284
0.0281284
0.0281284
0.050431
0.050431
0.0496393
0.0496393
0.0488318
0.0488318
0.0251741
0.0251741
0.0251741
0.0493049
0.0493049
0.0366134
0.0366134
0.050281
0.050281
0.0274147
0.0274147
0.0431086
0.0431086
0.0241406
0.0241406
0.0499316
0.0499316
0.0495603
0.0495603
0.048122
0.048122
0.0483051
0.0483051
0.0472672
0.0472672
0.0260005
0.0260005
0.0483377
0.0483377
0.0484697
0.0484697
0.0493726
0.0493726
0.0504092
0.0504092
0.0399724
0.0399724
0.0354423
0.0354423
0.0382221
0.0382221
0.0499238
0.0499238
0.041828
0.041828
0.048724
0.048724
0.0444674
0.0444674
0.0485433
0.0485433
0.0386096
0.0386096
0.0442823
0.0442823
0.0257847
0.0257847
0.0473137
0.0473137
0.032465
0.032465
0.0340124
0.0340124
0.0313975
0.0313975
0.043525
0.043525
0.0363835
0.0363835
0.0377621
0.0377621
0.0486821
0.0486821
0.049054
0.049054
0.0501152
0.0501152
0.0458365
0.0458365
0.0490948
0.0490948
0.0336113
0.0336113
0.0298833
0.0298833
0.0261199
0.0261199
0.0261199
0.0495627
0.0495627
0.0488257
0.0488257
0.0331851
0.0331851
0.0477497
0.0477497
0.0494083
0.0494083
0.0278217
0.0278217
0.0504934
0.0504934
0.0366776
0.0366776
0.0488288
0.0488288
0.0405752
0.0405752
0.0474431
0.0474431
0.0502671
0.0502671
0.017786
0.017786
0.0421711
0.0421711
0.0500787
0.0500787
0.0269192
0.0269192
0.0464878
0.0464878
0.0502656
0.0502656
0.0283147
0.0283147
0.0283147
0.0490499
0.0490499
0.0500558
0.0500558
0.0458649
0.0458649
0.0505649
0.0505649
0.0399823
0.0399823
0.0284895
0.0284895
0.0498982
0.0498982
0.035909
0.035909
0.047681
0.047681
0.0250757
0.0250757
0.0454996
0.0454996
0.0488083
0.0488083
0.0393605
0.0393605
0.0493777
0.0493777
0.029112
0.029112
0.0416087
0.0416087
0.0506246
0.0506246
0.0489061
0.0489061
0.0449313
0.0449313
0.0425369
0.0425369
0.0322162
0.0322162
0.0486837
0.0486837
0.0446246
0.0446246
0.0417926
0.0417926
0.0487269
0.0487269
0.039679
0.039679
0.0378632
0.0378632
0.0493757
0.0493757
0.0495545
0.0495545
0.0339848
0.0339848
0.0499806
0.0499806
0.0406143
0.0406143
0.0505886
0.0505886
0.044737
0.044737
0.047034
0.047034
0.0479853
0.0479853
0.0489236
0.0489236
0.0493761
0.0493761
0.048718
0.048718
0.0484438
0.0484438
0.0458185
0.0458185
0.039461
0.039461
0.0276947
0.0276947
0.0498524
0.0498524
0.0484298
0.0484298
0.0265177
0.0265177
0.0496932
0.0496932
0.0456846
0.0456846
0.0395836
0.0395836
0.0388349
0.0388349
0.0421102
0.0421102
0.0305815
0.0305815
0.0499793
0.0499793
0.0247011
0.0247011
0.0476233
0.0476233
0.0205221
0.0205221
0.0508706
0.0508706
0.0356198
0.0356198
0.0339287
0.0339287
0.0482468
0.0482468
0.050079
0.050079
0.0499019
0.0499019
0.048533
0.048533
0.038886
0.038886
0.0486358
0.0486358
0.0402252
0.0402252
0.0330095
0.0330095
0.049369
0.049369
0.0490491
0.0490491
0.0496223
0.0496223
0.0445704
0.0445704
0.0370554
0.0370554
0.0494611
0.0494611
0.0419775
0.0419775
0.0146991
0.0146991
0.049986
0.049986
0.0495019
0.0495019
0.0394864
0.0394864
0.0494674
0.0494674
0.0486214
0.0486214
0.0469747
0.0469747
0.0393862
0.0393862
0.0469462
0.0469462
0.0333156
0.0333156
0.0495059
0.0495059
0.0437688
0.0437688
0.0491462
0.0491462
0.0411158
0.0411158
0.0489478
0.0489478
0.0304261
0.0304261
0.0418145
0.0418145
0.0422666
0.0422666
0.0497973
0.0497973
0.0497225
0.0497225
0.0164621
0.0164621
0.0164621
0.0397964
0.0397964
0.0401703
0.0401703
0.0495866
0.0495866
0.048278
0.048278
0.0389383
0.0389383
0.0452099
0.0452099
0.028616
0.028616
0.0345832
0.0345832
0.0198559
0.0198559
0.0198559
0.0475419
0.0475419
0.049237
0.049237
0.0496629
0.0496629
0.0363677
0.0363677
0.0395214
0.0395214
0.0478365
0.0478365
0.0430715
0.0430715
0.0508643
0.0508643
0.0494662
0.0494662
0.0499763
0.0499763
0.046085
0.046085
0.0487032
0.0487032
0.0497906
0.0497906
0.0403671
0.0403671
0.0493241
0.0493241
0.0497953
0.0497953
0.0339835
0.0339835
0.0490682
0.0490682
0.0259258
0.0259258
0.0395988
0.0395988
0.0495269
0.0495269
0.0493513
0.0493513
0.0383989
0.0383989
0.0414031
0.0414031
0.0438885
0.0438885
0.0478908
0.0478908
0.0484496
0.0484496
0.0451909
0.0451909
0.0443975
0.0443975
0.0497234
0.0497234
0.0430097
0.0430097
0.0494603
0.0494603
0.0300382
0.0300382
0.0499306
0.0499306
0.0399677
0.0399677
0.0339745
0.0339745
0.0411257
0.0411257
0.0465906
0.0465906
0.0399016
0.0399016
0.0492829
0.0492829
0.0245782
0.0245782
0.0245782
0.04859
0.04859
0.0441046
0.0441046
0.0417908
0.0417908
0.0486815
0.0486815
0.0494092
0.0494092
0.0424875
0.0424875
0.0479499
0.0479499
0.0497416
0.0497416
0.0406102
0.0406102
0.0441111
0.0441111
0.0491866
0.0491866
0.0498324
0.0498324
0.045013
0.045013
0.0482661
0.0482661
0.0476929
0.0476929
0.0412697
0.0412697
0.0327075
0.0327075
0.0452463
0.0452463
0.0295061
0.0295061
0.0488845
0.0488845
0.0493152
0.0493152
0.0499562
0.0499562
0.0504269
0.0504269
0.0484471
0.0484471
0.0399967
0.0399967
0.0438879
0.0438879
0.0412283
0.0412283
0.0490795
0.0490795
0.0352466
0.0352466
0.0471917
0.0471917
0.0365334
0.0365334
0.0506191
0.0506191
0.049057
0.049057
0.0484466
0.0484466
0.0482293
0.0482293
0.0504165
0.0504165
0.0468826
0.0468826
0.0491214
0.0491214
0.0420393
0.0420393
0.0401973
0.0401973
0.0429915
0.0429915
0.049297
0.049297
0.0449514
0.0449514
0.0493894
0.0493894
0.0307648
0.0307648
0.0445386
0.0445386
0.0446008
0.0446008
0.0491195
0.0491195
0.0493437
0.0493437
0.0487046
0.0487046
0.0483883
0.0483883
0.0474929
0.0474929
0.0423484
0.0423484
0.0444806
0.0444806
0.0493359
0.0493359
0.0497182
0.0497182
0.0342643
0.0342643
0.0408051
0.0408051
0.0274643
0.0274643
0.0464381
0.0464381
0.0495871
0.0495871
0.0409778