/*--------------------------------*- C++ -*----------------------------------*\
  =========                 |
  \\      /  F ield         | OpenFOAM: The Open Source CFD Toolbox
   \\    /   O peration     | Website:  https://openfoam.org
    \\  /    A nd           | Version:  8
     \\/     M anipulation  |
\*---------------------------------------------------------------------------*/
FoamFile
{
    version     2.0;
    format      ascii;
    class       volScalarField;
    location    "0.4";
    object      nut;
}
// * * * * * * * * * * * * * * * * * * * * * * * * * * * * * * * * * * * * * //

dimensions      [0 2 -1 0 0 0 0];

internalField   nonuniform List<scalar> 
1924
(
0.0022
0.00228408
0.00247046
0.00246888
0.00231137
0.00246356
0.00246641
0.00246754
0.00247329
0.00246894
0.00248123
0.00248505
0.00180105
0.00249821
0.00247669
0.00245834
0.00182793
0.00249882
0.00214456
0.00250603
0.00162406
0.00214865
0.00208629
0.00250389
0.00217831
0.00224366
0.00227978
0.00242195
0.00231066
0.00235907
0.00198151
0.00217308
0.00210648
0.00190015
0.0024406
0.00213054
0.00217009
0.0023668
0.00227836
0.00192415
0.00219781
0.00167645
0.00220898
0.00207348
0.0024287
0.00220041
0.00222464
0.00246905
0.00156296
0.00154001
0.00233471
0.00171498
0.00214705
0.0023127
0.00205855
0.00246781
0.00212796
0.00245476
0.0024466
0.00241405
0.00218622
0.00246877
0.00216294
0.00225947
0.00228403
0.00247603
0.00250473
0.00211109
0.00229685
0.00228536
0.00163029
0.00246747
0.00221665
0.00239965
0.00238651
0.00183378
0.00247831
0.00241563
0.00246829
0.00226406
0.00247234
0.00233174
0.00238751
0.00160988
0.00213024
0.00214466
0.00245368
0.00248885
0.00152328
0.00162203
0.00250556
0.00231669
0.00217561
0.00221807
0.00167471
0.00218058
0.00247892
0.00247796
0.00241443
0.00168799
0.00246677
0.00165647
0.00242829
0.00236424
0.00225543
0.00245053
0.00245325
0.00217009
0.00240027
0.00227981
0.00247785
0.00236945
0.00236163
0.00240866
0.0024707
0.0015397
0.00246896
0.00245569
0.00232471
0.00247656
0.00204011
0.000645687
0.00159824
0.00153607
0.00249528
0.00229836
0.00189717
0.00241009
0.00235473
0.000679098
0.00247745
0.00246763
0.000201825
0.00242033
0.00170661
0.00236729
0.0024134
0.0024161
0.00250681
0.00241052
0.00247416
0.0024948
0.000193832
0.000141835
0.0024625
0.00214602
0.0021877
0.00170226
0.00239734
0.00235403
0.00231667
0.000324023
0.00186197
0.00246545
0.00246106
0.00228991
0.000643293
0.00244899
0.00247665
0.00025348
0.00241248
0.00191418
0.00246213
0.000657382
0.00224431
0.00237016
0.0023852
0.000482906
0.00247507
0.00241382
0.00218204
0.0024623
0.00244185
0.00237221
0.00247735
0.00200933
0.00237949
0.000337902
0.00218991
0.00245909
0.00222085
0.00247665
0.00244679
0.00237129
0.00155319
0.00235563
0.00190937
0.00230536
0.00247682
0.00243489
0.00210344
0.00246738
0.00247741
0.00246086
0.00244057
0.000330187
0.00236819
0.00201644
0.0021202
0.00196341
0.000408187
0.0023661
0.00243603
0.00247863
0.00226453
0.00221168
0.00247129
0.00183735
0.00177675
0.000131752
0.000670538
0.00244842
0.00251121
0.00243113
0.00229461
0.00244291
0.00238437
0.00209216
0.00247854
0.00239267
0.0022009
0.00237756
0.0024304
0.00251154
0.00248413
0.00235777
0.00247899
0.00245701
0.00245831
0.00198276
0.000285348
0.00247622
0.00211645
0.000309317
0.00241003
0.000165687
0.0025068
0.00249565
0.00246261
0.000336642
0.00247791
0.00214868
0.00250288
0.00185225
0.000378705
0.00173653
0.00249972
0.0024783
0.00244068
0.00244564
0.00241281
0.000585983
0.00245589
0.00245598
0.00247508
0.00250629
0.00224225
0.00210986
0.00219414
0.00250116
0.00229601
0.00246185
0.00236166
0.0024517
0.00219034
0.00233941
0.00177257
0.00241988
0.00202524
0.000451211
0.0019746
0.00232209
0.00211938
0.00218146
0.00247142
0.00246817
0.00250259
0.00240158
0.00246658
0.00205717
0.00047959
0.000244332
0.00249324
0.00246834
0.00201118
0.00243037
0.00247999
0.000591409
0.00251431
0.00215144
0.00246362
0.00224344
0.00244248
0.00250247
0.00147694
0.00227966
0.00249817
0.00182753
0.00239841
0.00250245
0.000342168
0.00246555
0.00249699
0.0023874
0.00251321
0.00224776
0.00185837
0.00249262
0.00212579
0.00243579
0.00176667
0.00237319
0.00246808
0.0021989
0.00247677
0.00187967
0.002289
0.00251598
0.00246573
0.00237779
0.00229338
0.00200025
0.00246036
0.0023494
0.00229893
0.00245805
0.00223768
0.00218613
0.00247532
0.00248448
0.00206888
0.00250245
0.00222929
0.00251271
0.00235341
0.00243301
0.00245307
0.0024721
0.00248642
0.00246238
0.0024498
0.00238207
0.00220733
0.00185306
0.00249256
0.00245709
0.000276251
0.00249359
0.00238034
0.00223566
0.00220456
0.000350713
0.000448757
0.00249505
0.00174566
0.00242775
0.00158978
0.00252184
0.00210931
0.00205209
0.00246709
0.00249759
0.00249292
0.0024676
0.00220065
0.0024673
0.00222395
0.00201835
0.00248574
0.00247532
0.00248542
0.00236757
0.00215511
0.00248226
0.00229668
0.000312098
0.00249537
0.00248417
0.00221076
0.00248771
0.00246537
0.00241057
0.00222884
0.00242722
0.0020415
0.00248196
0.00232706
0.00248216
0.0022732
0.00247661
0.000397843
0.00226514
0.00231053
0.00249849
0.00249809
0.000104326
0.00223448
0.00222781
0.00248441
0.00245242
0.00219462
0.00236506
0.00187518
0.00209367
0.000154174
0.0024412
0.00247417
0.00249534
0.00213076
0.002223
0.00245517
0.00230235
0.00252047
0.00249223
0.00250413
0.00239275
0.00245836
0.00249022
0.00221194
0.0024758
0.00249017
0.00204822
0.002469
0.00178714
0.00221861
0.00248324
0.00247573
0.002193
0.00225775
0.00234607
0.00245109
0.00245082
0.00237958
0.00234121
0.00249771
0.00232365
0.00248122
0.00190959
0.00250388
0.00222478
0.00206204
0.00227282
0.00241779
0.00221866
0.00248327
0.00013261
0.0024734
0.00233623
0.0022973
0.00247123
0.00248226
0.00228678
0.00244964
0.00248864
0.00225636
0.00236282
0.00247354
0.00249145
0.00236087
0.00245383
0.00242991
0.00225797
0.00199424
0.0023656
0.0019044
0.00247592
0.00248678
0.00250379
0.00251422
0.00245361
0.00223334
0.00232794
0.00225688
0.0024702
0.00207931
0.00241614
0.00213113
0.00251435
0.00247748
0.0024552
0.0024624
0.00251572
0.00242328
0.00248159
0.00227731
0.00223449
0.00232187
0.00247805
0.00237131
0.00247805
0.00193184
0.00236063
0.00234967
0.00247304
0.00247862
0.00245943
0.00245834
0.00243912
0.00230408
0.00234687
0.0024782
0.0024889
0.00206282
0.00224557
0.00183089
0.0024019
0.0024849
0.00226495
0.00231404
0.00247077
0.00237432
0.00245231
0.00244711
0.00244445
0.00246079
0.00245921
0.00226526
0.00234788
0.00252044
0.00245239
0.00237037
0.00248356
0.00243098
0.00246894
0.00247003
0.0023922
0.00226123
0.00224163
0.00225687
0.00251214
0.00237584
0.00251033
0.00233868
0.00220951
0.00194327
0.00246952
0.00251492
0.00210899
0.00201218
0.00225767
0.00230317
0.00233959
0.00231853
0.00235054
0.00245916
0.00236162
0.00220712
0.0022286
0.0024719
0.00248697
0.00235211
0.00241406
0.00247318
0.00236269
0.00231421
0.00224873
0.00225922
0.00234915
0.00232523
0.00211043
0.00226313
0.00237675
0.0020169
0.00242217
0.00208785
0.00216354
0.00241801
0.0024748
0.00223474
0.00232732
0.00245387
0.00237829
0.0022997
0.00243453
0.0022728
0.00244835
0.00225081
0.00186558
0.00246577
0.00229489
0.00228888
0.00245316
0.0025228
0.00243635
0.00229773
0.00230596
0.00247275
0.00237975
0.00243316
0.0023757
0.00227366
0.00237202
0.000493587
0.00232682
0.00234846
0.00246547
0.00244819
0.00247097
0.00246473
0.00237943
0.00204137
0.00247171
0.0025105
0.00213263
0.00235434
0.00249394
0.00237726
0.00237665
0.00210895
0.00237046
0.00227685
0.00248557
0.00228215
0.00247686
0.00231375
0.00246629
0.00246739
0.00197576
0.00219056
0.00225802
0.00245695
0.00242065
0.0024749
0.00228514
0.00251924
0.0022269
0.00231248
0.0024563
0.00241284
0.002305
0.00245859
0.00235703
0.0024673
0.00238087
0.0023667
0.00211448
0.00234753
0.00225831
0.00237552
0.00245376
0.00240202
0.00241679
0.00234546
0.00231009
0.0024046
0.00247802
0.00230398
0.00246673
0.00237892
0.00210618
0.0023777
0.00242061
0.00244458
0.00249197
0.00231701
0.00243045
0.00237771
0.00235577
0.00230317
0.00233403
0.00224295
0.00235565
0.00223681
0.00243547
0.00243271
0.00209129
0.00229835
0.00245768
0.00237608
0.0023609
0.00233464
0.00237769
0.00207328
0.00247973
0.00247552
0.00242486
0.0025193
0.00247413
0.00236133
0.00233404
0.00245956
0.00245839
0.00246014
0.0024559
0.00230567
0.00251794
0.00244324
0.00214499
0.00245223
0.00235096
0.00236981
0.00250838
0.00247862
0.00235413
0.00237552
0.00246515
0.00235066
0.00227926
0.00235424
0.00232759
0.00238173
0.00237499
0.00237502
0.00191562
0.00230999
0.00237896
0.00240351
0.00234401
0.00245112
0.0023738
0.00237641
0.00236565
0.00241004
0.00216204
0.00231639
0.00240155
0.00242035
0.00237267
0.00246296
0.00191528
0.00224735
0.00245725
0.00235683
0.00236069
0.00247084
0.0002768
0.000134142
0.00214844
0.00202797
0.00243593
0.00242414
0.00236357
0.00224647
0.00234812
0.00245474
0.0023203
0.00244496
0.00238739
0.00245866
0.00237014
0.0023315
0.00243288
0.00235995
0.000332007
0.0024834
0.000428096
0.00237112
0.00236548
0.00237649
0.00242827
0.00233252
0.00240868
0.00251551
0.00212409
0.00222474
0.00248878
0.0021229
0.00220977
0.00218175
0.00245859
0.00211305
0.00243669
0.00245807
0.00238847
0.00234417
0.00237435
0.00234659
0.00236797
0.00237563
0.00237586
0.00246592
0.00237053
0.00232336
0.00241331
0.00194613
0.00244469
0.00237631
0.00234236
0.00237614
0.00240379
0.00236525
0.00227858
0.002508
0.00205992
0.00251181
0.00208764
0.00247446
0.00238648
0.00244899
0.00231789
0.00237872
0.00236228
0.00245122
0.00241809
0.00236589
0.00236771
0.00244551
0.00220589
0.00239306
0.00236711
0.00209607
0.0020584
0.00234523
0.00206462
0.00227675
0.00246941
0.00208443
0.00246388
0.00242662
0.00237607
0.00210593
0.00243327
0.00231952
0.00037173
0.00237064
0.00238051
0.00245937
0.00236166
0.0023487
0.00229489
0.00235332
0.00250032
0.00245497
0.00236899
0.00244498
0.00242881
0.00237575
0.00245215
0.00243029
0.00238164
0.00247271
0.0022808
0.00237358
0.00236986
0.0023669
0.00236219
0.0022482
0.00245876
0.00239445
0.000134664
0.00248671
0.000423228
0.00238325
0.00235892
0.0016545
0.00234835
0.0023893
0.00237549
0.00246397
0.00235626
0.00250252
0.00243773
0.00237614
0.00224532
0.00247012
0.00240842
0.00234292
0.0023763
0.00229974
0.00210757
0.00245377
0.00245262
0.00241093
0.00208922
0.00234517
0.00241994
0.00232258
0.00235982
0.00237838
0.00238117
0.00237736
0.00236151
0.00233318
0.00250728
0.00237897
0.00208643
0.00224583
0.00235696
0.000376122
0.00240268
0.0019809
0.00236609
0.00246335
0.00203163
0.00240832
0.00237305
0.00242351
0.00249366
0.00244136
0.00244812
0.00238113
0.00229246
0.000426706
0.00243839
0.00243477
0.00243682
0.00242681
0.00246959
0.00233417
0.00246968
0.00237731
0.00203922
0.00237035
0.00213496
0.00237513
0.0023772
0.00243986
0.00235061
0.00238777
0.00243718
0.00238395
0.00206193
0.00242542
0.000165281
0.00219664
0.00243019
0.00235923
0.00237271
0.00237454
0.00210047
0.00206104
0.00246701
0.0023831
0.002201
0.00239666
0.0023758
0.00225577
0.00249599
0.00249347
0.00240223
0.00237857
0.00246737
0.00238138
0.00232499
0.0024121
0.00198957
0.00246355
0.00233396
0.00240425
0.00243334
0.00209166
0.000254742
0.00238435
0.0022777
0.00044788
0.00240942
0.00238175
0.00241482
0.00236416
0.00246817
0.00230927
0.00238215
0.000202738
0.0023414
0.00245399
0.000196497
0.00232338
0.000128524
0.00236562
0.00246817
0.00230285
0.00230753
0.00234835
0.00251484
0.0022812
0.00242207
0.00244121
0.0023855
0.00239222
0.00230546
0.00209119
0.00235467
0.00205232
0.00238717
0.00245537
0.00194496
0.00240527
0.00240024
0.00244704
0.00199811
0.00246585
0.00240305
0.00229777
0.00236063
0.00239084
0.00243849
0.00238414
0.00206228
0.00193969
0.00231036
0.0021654
0.00242458
0.00227302
0.00236524
0.00231901
0.00204291
0.00229715
0.00245664
0.0024605
0.00236104
0.00238899
0.00233229
0.00228941
0.00246562
0.00232706
0.0020325
0.00245785
0.0024932
0.00241729
0.00209181
0.00236803
0.00234094
0.00246575
0.00240876
0.00241765
0.00239366
0.00241007
0.00240713
0.00233521
0.00238812
0.00242164
0.00242052
0.00242456
0.000206504
0.00203627
0.00210479
0.0024129
0.00234314
0.00242889
0.00244575
0.00233434
0.00219787
0.00227692
0.00238618
0.00244995
0.00211148
0.00217586
0.00235019
0.00249892
0.0022978
0.00238587
0.00228289
0.00245567
0.0025011
0.00244122
0.00246368
0.00239858
0.00231807
0.00240212
0.0023984
0.00241504
0.00235542
0.00242391
0.00234336
0.00236868
0.00246811
0.00251565
0.00239517
0.00242041
0.002431
0.00226101
0.00240452
0.00226228
0.0022709
0.00189535
0.00234252
0.0020443
0.00244051
0.002389
0.00229129
0.00225786
0.0024552
0.00228269
0.00235826
0.00228059
0.00240597
0.00241925
0.000445828
0.00245132
0.00228999
0.00238637
0.000428838
0.00240666
0.00229878
0.00187014
0.00225897
0.00224888
0.00212727
0.00240626
0.00245361
0.0024014
0.00230543
0.00245277
0.000420185
0.000447505
0.00236647
0.00240809
0.00243821
0.00247163
0.00242076
0.00230724
0.00222746
0.0023089
0.00222531
0.0004272
0.00239764
0.00187267
0.00220988
0.00239961
0.00244823
0.00239524
0.00231429
0.00244097
0.000146939
0.00015931
0.00251818
0.00230538
0.00235794
0.0024036
0.00223935
0.00238421
0.00240174
0.00224247
0.00244147
0.00240546
0.00238675
0.00200535
0.00240972
0.00225107
0.000416206
0.00206688
0.00244843
0.00243118
0.00243672
0.00226247
0.00221524
0.00238224
0.00238171
0.00232169
0.0021506
0.00227266
0.00243949
0.000186671
0.00208418
0.00219207
0.0023082
0.00042077
0.00235901
0.00228024
0.000453452
0.000325466
0.00241099
0.00230138
0.00243522
0.00244837
0.0024171
0.0024072
0.00231112
0.00242039
0.00229589
0.0024005
0.00240042
0.000202553
0.000417524
0.00235335
0.000341962
0.0022293
0.00240162
0.0021534
0.00228394
0.00240302
0.0021965
0.00217067
0.00225288
0.00251072
0.00244828
0.00240185
0.00190423
0.00244948
0.00244152
0.00243167
0.0021521
0.0024231
0.0021876
0.0023929
0.002119
0.000441471
0.00230182
0.00238959
0.00237418
0.000415301
0.00213069
0.00238782
0.00184979
0.000416967
0.00240972
0.00207506
0.00237121
0.00214232
0.0021665
0.00242054
0.00241338
0.00240281
0.00210817
0.00241031
0.00215329
0.0023453
0.00212912
0.00209383
0.00241808
0.00216169
0.00239601
0.00227117
0.00242129
0.00192989
0.00224034
0.00239278
0.00228225
0.00237434
0.000131796
0.000119486
0.00239254
0.00234141
0.00216596
0.00230015
0.00241095
0.00227331
0.00212936
0.00187414
0.000417479
0.00237169
0.00228752
0.00239375
0.00238742
0.00240575
0.00241221
0.00238927
0.00209807
0.00241013
0.00203315
0.0024009
0.00242263
0.0024008
0.00211963
0.00205331
0.0023984
0.00216428
0.00239371
0.00204833
0.000196568
0.00239401
0.00206394
0.00241765
0.00207949
0.00240863
0.000415389
0.00232084
0.00201975
0.00055317
0.0023946
0.00241778
0.00209381
0.000198407
0.00204834
0.00227359
0.00212266
0.002047
0.00210508
0.0020196
0.00238377
0.0023614
0.00230354
0.00219117
0.00202713
0.00216787
0.0023286
0.00239575
0.00235728
0.00206849
0.00221005
0.00209494
0.00239847
0.00234288
0.000436365
0.00241351
0.00042406
0.00237527
0.00236799
0.00239211
0.00232218
0.0023604
0.00211128
0.00240472
0.00205497
0.00240045
0.00209538
0.00232716
0.00236411
0.00238326
0.0021543
0.000208823
0.00237724
0.00226642
0.00203381
0.00238926
0.00235905
0.00212088
0.00239452
0.000200073
0.00200044
0.00230337
0.00246527
0.000202793
0.00215868
0.00225579
0.00235462
0.00246187
0.00200057
0.00234664
0.00239158
0.000341213
0.00231925
0.00235221
0.0023456
0.00210996
0.00238392
0.00021723
0.00233283
0.0023547
0.00194477
0.0023888
0.00238484
0.00196686
0.00238508
0.00238168
0.00220719
0.00231287
0.00221467
0.0023708
0.000195801
0.000202377
0.00221768
0.00199411
0.0022202
0.00019256
0.00238279
0.00233921
0.000423836
0.00238463
0.00213392
0.00229548
0.00238232
0.000369441
0.000201195
0.00222121
0.00227267
0.000432888
0.000143453
0.000137468
0.00207796
0.00208936
0.00218962
0.00201584
0.00231177
0.00233799
0.00234174
0.00234366
0.00233267
0.00238232
0.000194845
0.00237019
0.000204173
0.000216716
0.00236634
0.00226393
0.00198235
0.000200123
0.00234716
0.0019208
0.00230264
0.000422511
0.00195898
0.00042347
0.0023793
0.000430517
0.00208999
0.00186484
0.000425047
0.00236722
0.000444863
0.00233054
0.0022428
0.000390209
0.000426935
0.00221649
0.000429235
0.00229875
0.000352103
0.000431266
0.00209887
0.00182968
0.00218523
0.00219246
0.000302104
0.000200547
0.000432466
0.0023643
0.00213413
0.00237488
0.00236106
0.00218862
0.00222837
0.00213552
0.00237002
0.00217161
0.00237156
0.000424021
0.00216574
0.00180838
0.00233462
0.00229634
0.00237221
0.00214255
0.00192804
0.000186389
0.00196334
0.000431974
0.00237633
0.00236125
0.00237155
0.00210473
0.00232106
0.00188805
0.00220956
0.00236531
0.000203345
0.00228558
0.0022377
0.00188462
0.000451326
0.00217505
0.00217713
0.00210015
0.0022271
0.00235988
0.000418732
0.0023517
0.00229508
0.000414099
0.00232495
0.00236015
0.00042578
0.00216868
0.00232842
0.00229822
0.000428498
0.00211718
0.00233268
0.00228377
0.000409975
0.00235606
0.00207647
0.00214772
0.00235513
0.000187431
0.00234734
0.00213263
0.00232571
0.00234329
0.0023572
0.00208072
0.00198459
0.0023059
0.00186705
0.00233623
0.00183313
0.00231082
0.000208769
0.000455755
0.000453571
0.000207559
0.00222061
0.000433974
0.00233173
0.0022011
0.00186302
0.000423401
0.000180281
0.0019784
0.00234768
0.0023255
0.00235529
0.00196403
0.00226214
0.00226914
0.000405335
0.00231505
0.00196401
0.002331
0.0023181
0.00216725
0.00233539
0.00220191
0.0020149
0.00217465
0.000421064
0.0023433
0.00230968
0.00216503
0.0022782
0.00180326
0.000179152
0.00206211
0.000378186
0.000182534
0.00230428
0.000186583
0.00232776
0.0022012
0.000190744
0.00230022
0.000451658
0.000194847
0.00230547
0.00214434
0.000398801
0.000198778
0.000202071
0.00226482
0.00220929
0.00230481
0.00218795
0.00207229
0.00230015
0.00204085
0.00226934
0.000166606
0.000183897
0.000204434
0.00220012
0.00219121
0.00229151
0.000435392
0.00229185
0.000417987
0.000448107
0.00226092
0.00227438
0.000441609
0.000387822
0.00204134
0.00175487
0.000205374
0.000429339
0.00228889
0.000174352
0.00211143
0.0022644
0.00224877
0.00222571
0.00224551
0.000175469
0.000171488
0.00215565
0.00227594
0.000168376
0.00226343
0.00041065
0.00226854
0.00203889
0.000198649
0.000216193
0.000221285
0.000449373
0.00203115
0.00212862
0.00227415
0.00223596
0.00225944
0.0023378
0.00208142
0.00218022
0.00231778
0.00224078
0.000165702
0.00229434
0.00210998
0.00217789
0.000351393
0.00229003
0.00020444
0.00230786
0.00228157
0.000176258
0.000367516
0.00222814
0.00222461
0.00220814
0.0021406
0.000219475
0.00215683
0.000187598
0.000413545
0.000436585
0.00219995
0.00224458
0.00216534
0.00216026
0.00228336
0.00211724
0.000422998
0.00215499
0.000203329
0.000210407
0.00213509
0.000162928
0.00218072
0.000440629
0.00220849
0.00232368
0.00204341
0.00214875
0.00216953
0.00202345
0.00169862
0.00228177
0.000201456
0.00015921
0.00219565
0.00021271
0.000168294
0.00221755
0.00207414
0.00209749
0.000222362
0.00213827
0.00021777
0.000446235
0.00223038
0.0023146
0.000219009
0.000437274
0.00213212
0.000215809
0.00234658
0.00208085
0.000168301
0.00214083
0.00199977
0.00214155
0.000441481
0.00201866
0.00225588
0.000139728
0.000150319
0.00220014
0.0016653
0.00214313
0.00219016
0.0021718
0.00223453
0.00204039
0.0021151
0.000209494
0.00216838
0.00213212
0.00210827
0.00222295
0.00210612
0.002035
0.000395648
0.000172213
0.00202064
0.00226939
0.00205761
0.0018818
0.00189264
0.000432534
0.000215617
0.00210229
0.00198582
0.000428451
0.00217081
0.000403371
0.000197135
0.00198781
0.00204298
0.00207811
0.00199623
0.000211044
0.000208776
0.00200397
0.000431087
0.00043602
0.000423089
0.00191621
0.00191027
0.00202587
0.00207305
0.00197475
0.000349364
0.000157019
0.00211155
0.00190059
0.00209343
0.000416015
0.000205917
0.00207776
0.00215426
0.00212979
0.00208227
0.00194716
0.00198019
0.00213604
0.000415004
0.000204879
0.00195266
0.000439882
0.001974
0.000201423
0.00196631
0.000204941
0.000442811
0.000213208
0.00203673
0.000211905
0.00204591
0.000421616
0.00192326
0.00195891
0.000196994
0.000401121
0.00186798
0.000392934
0.000388787
0.0001879
0.00195116
0.000161181
0.00192048
0.000190913
0.00174408
0.00200967
0.00186483
0.000198975
0.000197513
0.000408469
0.000400871
0.000439372
0.000407801
0.000207933
0.000181693
0.00186473
0.00189131
0.00197866
0.00192122
0.000190228
0.000165444
0.000371945
0.00172214
0.0018564
0.00180299
0.00189508
0.00191989
0.00195696
0.00186491
0.000176282
0.00038603
0.00181798
0.000211431
0.000370434
0.000168766
0.000355146
0.00170677
0.00176388
0.000133278
0.000273021
0.000120181
0.000112404
0.000302878
0.000145333
0.000182005
0.000381691
0.000210645
0.000385083
0.000185031
0.000190761
0.000377799
0.000178452
0.000193773
0.000397669
0.000386961
0.00018379
0.000201877
0.000177814
0.000379778
0.000188588
0.000393712
0.000150132
0.000123578
0.000135594
0.000351431
0.000163727
0.000173337
0.000370745
0.000193058
0.00168081
0.00246013
0.00181444
0.00188427
0.001851
0.000396981
0.000150281
0.00222039
0.00199804
0.00218734
0.000122654
0.00173696
0.00225367
0.00208078
0.00172051
0.000364155
0.000359412
0.00246862
0.00223065
0.000196309
0.000119303
0.000200821
0.00228639
0.00158999
0.00226257
0.0021438
0.000210112
0.00201148
0.00191345
0.00227233
0.000117787
0.00011979
0.000199597
0.000175435
0.000228193
0.000171319
0.000191144
0.000182258
0.00223436
0.000427192
0.00218525
0.000146094
0.000126067
0.000137618
0.000439161
0.00192164
0.00231572
0.000162159
0.000144335
0.00014995
0.00221941
0.00225337
0.000334571
0.00197186
0.00246518
0.00175736
0.001588
0.000365614
0.000160974
0.000516711
0.000352457
0.000537686
0.000379052
0.000349159
0.000363024
0.000117358
0.000113415
0.00217808
0.00195011
0.00160764
0.00246975
0.000202875
0.000303669
0.000331721
0.00159192
0.00173656
0.000323879
0.00197968
0.00165285
0.00176172
0.00218264
0.000138612
0.00163361
0.00176194
0.00180301
0.000347475
0.00247978
0.0018238
0.00201092
0.000144458
0.00181796
0.00249399
0.00177571
0.000274563
0.000163323
0.00221242
0.00204588
0.00250378
0.00158206
0.00163832
0.000138028
0.00208107
0.00248225
0.00160921
0.00248438
0.00211674
0.00033758
0.002152
0.00248844
0.00183837
0.0022478
0.00189546
0.00161767
0.00166704
0.000110962
0.00221759
0.000298895
0.000144518
0.0024973
)
;

boundaryField
{
    patch0
    {
        type            nutkWallFunction;
        Cmu             0.09;
        kappa           0.41;
        E               9.8;
        value           nonuniform List<scalar> 
4010
(
0.000253133
0.000253133
0.000267728
0.000267728
0.000282403
0.000282403
0.000269003
0.000269003
0.000270258
0.000270258
0.000262028
0.000262028
0.000266689
0.000266689
0.000277337
0.000277337
0.000284477
0.000284477
0.000285727
0.000285727
0.00028246
0.00028246
0.000282701
0.000282701
0.000170677
0.000170677
0.000287355
0.000287355
0.000259821
0.000259821
0.000256471
0.000256471
0.000172895
0.000172895
0.000287561
0.000287561
0.000211479
0.000211479
0.00028836
0.00028836
0.000154595
0.000154595
0.000199543
0.000199543
0.000228858
0.000228858
0.000288214
0.000288214
0.000204906
0.000204906
0.000206668
0.000206668
0.000215244
0.000215244
0.000281525
0.000281525
0.000269256
0.000269256
0.000274261
0.000274261
0.000193733
0.000193733
0.000200723
0.000200723
0.000197015
0.000197015
0.000179654
0.000179654
0.000283263
0.000283263
0.000247461
0.000247461
0.000199621
0.000199621
0.000275313
0.000275313
0.000265532
0.000265532
0.000181735
0.000181735
0.000201733
0.000201733
0.000159617
0.000159617
0.000202603
0.000202603
0.000244273
0.000244273
0.000280385
0.000280385
0.000205421
0.000205421
0.000261667
0.000261667
0.000285206
0.000285206
0.000148971
0.000148971
0.000147098
0.000147098
0.000271137
0.000271137
0.000162782
0.000162782
0.000215005
0.000215005
0.000268698
0.000268698
0.000188827
0.000188827
0.000285714
0.000285714
0.000203467
0.000203467
0.000283647
0.000283647
0.000283289
0.000283289
0.000226392
0.000226392
0.000256305
0.000256305
0.000266512
0.000266512
0.000253846
0.000253846
0.000263281
0.000263281
0.000265316
0.000265316
0.000286068
0.000286068
0.000286246
0.000286246
0.000242728
0.000242728
0.000266764
0.000266764
0.000266305
0.000266305
0.000154024
0.000154024
0.000281891
0.000281891
0.000258571
0.000258571
0.000278194
0.000278194
0.000276794
0.000276794
0.000202244
0.000202244
0.000286223
0.000286223
0.00027971
0.00027971
0.000285063
0.000285063
0.000264314
0.000264314
0.000285306
0.000285306
0.000219658
0.000219658
0.000276154
0.000276154
0.000153236
0.000153236
0.000201015
0.000201015
0.000251929
0.000251929
0.000284342
0.000284342
0.000281867
0.000281867
0.000145643
0.000145643
0.00015337
0.00015337
0.000283833
0.000283833
0.000218713
0.000218713
0.000200153
0.000200153
0.000203412
0.000203412
0.000158184
0.000158184
0.000254179
0.000254179
0.000286232
0.000286232
0.000285809
0.000285809
0.000227325
0.000227325
0.000188422
0.000188422
0.000285284
0.000285284
0.000157
0.000157
0.000252856
0.000252856
0.00021773
0.00021773
0.000205866
0.000205866
0.000283369
0.000283369
0.000283371
0.000283371
0.000199352
0.000199352
0.000233294
0.000233294
0.000209877
0.000209877
0.000285925
0.000285925
0.000273981
0.000273981
0.000275492
0.000275492
0.000278852
0.000278852
0.000285365
0.000285365
0.000146931
0.000146931
0.000278256
0.000278256
0.000256273
0.000256273
0.000270905
0.000270905
0.000286013
0.000286013
0.000190882
0.000190882
6.66434e-05
6.66434e-05
0.000152399
0.000152399
0.000146509
0.000146509
0.000286481
0.000286481
0.000211264
0.000211264
0.000209082
0.000209082
0.000279087
0.000279087
0.000271702
0.000271702
6.96888e-05
6.96888e-05
0.000285859
0.000285859
0.000285247
0.000285247
2.37854e-05
2.37854e-05
0.000279839
0.000279839
0.000161687
0.000161687
0.000218439
0.000218439
0.000279917
0.000279917
0.000279781
0.000279781
0.000288536
0.000288536
0.000280532
0.000280532
0.000286064
0.000286064
0.000286557
0.000286557
2.23817e-05
2.23817e-05
2.23817e-05
1.70881e-05
1.70881e-05
1.70881e-05
0.000262098
0.000262098
0.000198658
0.000198658
0.000200873
0.000200873
0.000160709
0.000160709
0.000270735
0.000270735
0.00027351
0.00027351
0.000215086
0.000215086
3.55569e-05
3.55569e-05
3.55569e-05
0.000173765
0.000173765
0.000280777
0.000280777
0.000261615
0.000261615
0.00021046
0.00021046
6.64159e-05
6.64159e-05
0.000283838
0.000283838
0.000285514
0.000285514
3.03566e-05
3.03566e-05
0.000279387
0.000279387
0.00018041
0.00018041
0.000262058
0.000262058
6.77369e-05
6.77369e-05
0.000207444
0.000207444
0.00023454
0.00023454
0.000232081
0.000232081
5.11584e-05
5.11584e-05
0.000285845
0.000285845
0.000277933
0.000277933
0.000209541
0.000209541
0.000264023
0.000264023
0.000282475
0.000282475
0.000217752
0.000217752
0.000286385
0.000286385
0.000185606
0.000185606
0.00027615
0.00027615
3.71173e-05
3.71173e-05
0.000257187
0.000257187
0.000261188
0.000261188
0.000206138
0.000206138
0.000270702
0.000270702
0.000282992
0.000282992
0.000219431
0.000219431
0.000148059
0.000148059
0.000274883
0.000274883
0.000177019
0.000177019
0.000213541
0.000213541
0.000285925
0.000285925
0.00028173
0.00028173
0.000204914
0.000204914
0.000283543
0.000283543
0.000285645
0.000285645
0.000261146
0.000261146
0.000232426
0.000232426
3.61711e-05
3.61711e-05
3.61711e-05
0.000218734
0.000218734
0.0001862
0.0001862
0.000195347
0.000195347
0.000182076
0.000182076
4.41037e-05
4.41037e-05
0.000276066
0.000276066
0.000280611
0.000280611
0.000284728
0.000284728
0.000264021
0.000264021
0.000205709
0.000205709
0.000283893
0.000283893
0.000171218
0.000171218
0.000166205
0.000166205
1.44533e-05
1.44533e-05
1.44533e-05
6.89614e-05
6.89614e-05
0.000282551
0.000282551
0.00028899
0.00028899
0.000268351
0.000268351
0.000212721
0.000212721
0.000282616
0.000282616
0.000275342
0.000275342
0.000205642
0.000205642
0.000284615
0.000284615
0.000277247
0.000277247
0.000208331
0.000208331
0.000274899
0.000274899
0.000279841
0.000279841
0.000289011
0.000289011
0.00028495
0.00028495
0.000217895
0.000217895
0.000285632
0.000285632
0.000283981
0.000283981
0.000273003
0.000273003
0.000183811
0.000183811
3.16068e-05
3.16068e-05
0.000281347
0.000281347
0.000196918
0.000196918
3.6525e-05
3.6525e-05
0.000222477
0.000222477
1.92113e-05
1.92113e-05
1.92113e-05
0.00028856
0.00028856
0.00028644
0.00028644
0.000284233
0.000284233
3.6812e-05
3.6812e-05
3.6812e-05
0.000285518
0.000285518
0.000197842
0.000197842
0.000288161
0.000288161
0.00017272
0.00017272
4.09653e-05
4.09653e-05
0.000162994
0.000162994
0.000287225
0.000287225
0.000286245
0.000286245
0.000282372
0.000282372
0.000282869
0.000282869
0.000280039
0.000280039
6.09916e-05
6.09916e-05
0.000272454
0.000272454
0.000283286
0.000283286
0.000285744
0.000285744
0.000288503
0.000288503
0.000205549
0.000205549
0.000194238
0.000194238
0.000206553
0.000206553
0.000287198
0.000287198
0.000211734
0.000211734
0.00028341
0.00028341
0.000216978
0.000216978
0.000283514
0.000283514
0.000202655
0.000202655
0.000271707
0.000271707
0.000167967
0.000167967
0.000280167
0.000280167
0.000186856
0.000186856
5.01185e-05
5.01185e-05
0.000183742
0.000183742
0.000221083
0.000221083
0.000196934
0.000196934
0.000200341
0.000200341
0.000277533
0.000277533
0.00028489
0.00028489
0.000287716
0.000287716
0.000221893
0.000221893
0.000284877
0.000284877
0.000189619
0.000189619
5.09954e-05
5.09954e-05
2.74547e-05
2.74547e-05
2.74547e-05
0.000283628
0.000283628
0.000270725
0.000270725
0.000188576
0.000188576
0.000281359
0.000281359
0.00028584
0.00028584
6.14857e-05
6.14857e-05
0.000288614
0.000288614
0.000198357
0.000198357
0.000267449
0.000267449
0.000260862
0.000260862
0.000239455
0.000239455
0.000288126
0.000288126
0.000141817
0.000141817
0.000210217
0.000210217
0.000287616
0.000287616
0.00017129
0.00017129
0.000277893
0.000277893
0.000288123
0.000288123
3.73403e-05
3.73403e-05
3.73403e-05
0.000275882
0.000275882
0.000287566
0.000287566
0.000276163
0.000276163
0.000288914
0.000288914
0.000209491
0.000209491
0.000175945
0.000175945
0.000287147
0.000287147
0.000195399
0.000195399
0.000281171
0.000281171
0.00016584
0.00016584
0.000275142
0.000275142
0.000282975
0.000282975
0.00025607
0.00025607
0.000285757
0.000285757
0.000177943
0.000177943
0.000211227
0.000211227
0.00028897
0.00028897
0.000271261
0.000271261
0.000220489
0.000220489
0.000266685
0.000266685
0.000185912
0.000185912
0.000261637
0.000261637
0.000216125
0.000216125