/*--------------------------------*- C++ -*----------------------------------*\
  =========                 |
  \\      /  F ield         | OpenFOAM: The Open Source CFD Toolbox
   \\    /   O peration     | Website:  https://openfoam.org
    \\  /    A nd           | Version:  8
     \\/     M anipulation  |
\*---------------------------------------------------------------------------*/
FoamFile
{
    version     2.0;
    format      ascii;
    class       volScalarField;
    location    "0.4";
    object      p;
}
// * * * * * * * * * * * * * * * * * * * * * * * * * * * * * * * * * * * * * //

dimensions      [1 -1 -2 0 0 0 0];

internalField   nonuniform List<scalar> 
1924
(
0
-0.524342
-1.19222
-1.37476
-0.569334
-1.71087
-1.96515
-2.21323
-2.29843
-0.996822
-2.45102
-2.56898
67.0598
-2.77659
-6.44394
-7.19915
54.1485
-2.86211
1.88356
-3.09543
123.883
-2.25758
5.30051
-3.15425
0.12451
-2.40166
-6.98454
-0.768494
-0.792214
-1.11415
6.0743
-6.62097
12.1825
-4.21856
-0.840797
5.35656
-4.55961
-0.84884
-1.17281
14.1316
-1.85667
76.7242
2.7896
5.54441
-1.49746
-0.294373
-0.36062
-1.35472
265.428
106.814
5.57414
95.9399
4.17512
5.63794
21.8355
-1.03215
2.09649
-1.0003
-0.997183
-5.18113
5.45637
-7.06051
5.40255
-0.65685
5.84397
-1.36612
-6.20396
5.33876
-0.664227
5.45981
47.9093
-7.09639
-1.05163
-1.29909
-1.40344
35.9909
-1.5391
-1.47817
-1.40326
5.38852
-2.50928
-5.34354
-1.45285
112.963
1.89258
5.25321
-1.03362
-5.90127
137.322
64.3468
-5.61298
-2.65049
3.46249
1.50805
86.8046
5.96108
-1.58395
-2.56465
-5.58451
37.1199
-1.13259
103.892
-4.83461
-4.61942
4.761
-1.76681
-1.30227
19.9661
-4.05248
0.2688
-1.71793
-1.06137
-0.692688
-1.32278
-1.46818
88.3131
-1.23239
-6.85413
4.74676
-1.55849
71.0502
858.386
107.531
60.1646
-6.56621
2.45821
34.7108
-1.58368
-1.0594
974.055
-1.80418
-1.31419
39.3071
-1.29666
100.702
-0.579312
-0.989705
-1.11731
-3.41536
-0.784993
-1.20718
-6.81732
-5.08063
51.3295
-1.55749
861.511
11.3863
45.269
-3.04828
4.71734
4.05482
967.45
32.5471
-1.53726
-1.82251
4.60818
1028.74
-0.9802
-1.96235
-1.06036
-1.22044
37.9665
-1.74294
826.917
52.9589
-1.50007
-2.73398
1131.03
-1.62713
-1.3505
0.396333
-2.13083
-1.82454
-4.17522
-1.26502
2.90249
-1.11677
49.0727
5.34519
-2.12823
-1.21442
-6.06789
-1.47143
-3.436
290.002
-0.431493
29.0513
-3.05024
-1.74364
-1.36173
14.0612
-2.28619
-2.0371
-2.36103
-2.73522
912.845
-4.50695
-3.86072
-0.108454
30.1994
53.7456
-0.53653
-1.61255
-2.48043
-0.601427
-2.79854
-2.54188
49.1711
50.454
39.631
733.051
-1.37747
-4.00074
-3.6335
-4.5182
-1.65405
-2.63002
11.1957
-2.615
-1.6199
11.096
-1.14335
-1.7914
-4.36954
-2.57473
-4.64347
-2.1846
-2.06902
-3.28088
19.4457
25.9283
-4.59362
-5.10885
39.6655
-3.456
-8.16557
-3.9185
-2.83479
-1.8584
822.876
-6.14786
-12.5319
-3.61303
29.5747
4.47359
68.3993
-2.79942
-1.46198
-1.52169
-1.97407
-0.718864
798.892
-3.17474
-1.47754
-1.81451
-4.65679
-4.01278
0.346825
7.59259
-2.96658
4.10029
-2.03786
-4.59972
-1.61401
-0.477554
-1.39054
75.0349
-1.81387
24.6302
1.81464
47.0945
0.751834
2.19655
-7.44841
-4.51023
-2.62216
-2.91206
-2.92636
-1.63902
5.35594
94.459
978.094
-5.08708
-3.36265
107.705
-1.39635
-2.26394
851.964
-3.30247
-13.7105
-2.63745
-1.18725
-4.69175
-4.12478
106.922
89.2962
-5.13146
59.1032
-1.74299
-4.50299
980.76
-1.82008
-3.61016
-2.57432
-3.2105
-8.44924
15.5548
-3.38721
-1.63343
-1.46272
65.5924
4.83097
-3.43243
4.17708
-1.96066
26.2375
0.790315
-3.47458
-2.93639
-2.56474
-1.31257
35.3972
-2.16458
26.938
-4.19427
-2.33448
-5.84974
-9.0926
-1.57164
-2.45212
0.207058
-5.97559
4.38754
-3.27643
-1.59067
-4.77205
-5.25401
-2.98202
-3.59439
-2.48947
-2.2297
0.326297
3.38413
54.4124
-5.22478
-6.97427
25.7245
-6.38392
4.81373
-10.1386
-4.9121
-0.715342
67.727
-4.04984
84.4679
-2.05056
733.362
-3.93758
6.39267
6.05928
-4.76821
-4.6341
-3.78621
-5.62308
0.318627
-2.64357
3.79262
26.3481
-3.94921
-3.21877
-3.40883
-3.35565
-1.78901
-5.71146
-5.42281
52.5483
-4.95137
-5.83976
2.84143
-6.48551
-6.78195
-1.95579
-7.83815
-4.21618
28.9488
-3.23118
-1.50469
-5.99967
-8.37661
-2.89151
9.26268
4.19309
-5.96315
-5.88267
-3.40312
39.2803
-4.75279
3.20558
-2.54081
-6.96096
785.805
-1.80923
66.3525
25.2888
1205.88
-4.70111
-2.95231
-5.98622
3.07791
-4.63401
-4.72381
4.26515
-4.20811
-3.03337
-4.34715
-2.51196
-2.60528
-4.4534
5.01925
-1.77843
-4.18069
16.783
-2.82249
62.1766
4.47102
-3.76564
-2.03147
-1.22124
3.75014
-1.91921
-5.37878
-2.49949
-6.48805
4.32366
-3.68579
-4.73023
-3.57102
15.0999
-3.30214
3.65425
18.932
-6.16863
-5.48389
199.114
-6.11499
25.7293
-4.65471
-1.7184
-5.1928
-5.46457
-5.8191
3.82817
-4.28477
-2.74502
-9.9046
-5.08368
-3.27143
-5.00918
4.35586
-6.92649
-2.30265
3.3249
9.3724
4.53282
61.234
-5.63731
-5.61785
-4.6737
-3.57233
-1.4578
-3.70382
4.07382
-1.46124
-3.12821
7.99677
-2.20727
-0.995547
-4.88089
-6.15331
-6.8745
-4.74047
-4.14303
-3.55969
-5.74255
3.42324
3.35582
-1.47418
-5.61671
-3.83751
-2.19413
13.5123
-3.70321
4.13127
-1.91432
-4.10088
-2.88838
-6.67713
-4.05033
1.94836
65.9305
-3.89867
-5.26648
18.5903
3.39404
68.1737
-2.48792
-4.52367
-7.48926
3.76833
-3.58292
-2.04389
-2.77276
-4.58664
-4.84225
-5.14238
-5.36554
3.31537
-4.84654
-3.99089
-6.99784
4.16366
-4.77555
-2.5666
-3.42917
-4.1932
-4.7274
-1.62046
5.45745
-6.41008
-4.9254
4.43737
-5.14895
3.82431
5.1908
31.7997
-5.49817
-4.46074
5.60787
8.64098
2.54398
3.37128
23.9273
5.49667
-1.95206
-3.17734
-2.60763
-1.31695
6.23115
-6.29141
-2.82811
-2.71024
-2.94468
-6.47129
3.92401
7.05158
5.10761
5.41452
5.65668
175.396
-1.08413
2.6589
4.2369
34.2067
-3.38401
11.7685
5.06191
-2.46767
-2.02902
-1.39883
3.43809
-3.05349
-2.72975
1.02981
-4.46605
-1.82715
-4.72525
5.30989
67.322
-3.87419
4.91035
3.0036
-7.61062
-4.29383
-4.83109
5.8944
5.43835
-4.18864
4.94821
-2.84111
-0.246705
-4.33872
3.98181
26.8997
5.82919
5.61312
-3.71726
-5.1436
-1.96495
-5.90007
4.48209
6.08755
-4.38151
-5.08434
11.922
3.65941
-5.95482
-5.24315
-2.29164
4.98809
4.9559
2.54564
-5.32135
5.24925
-2.25514
3.09639
-6.75699
-4.77184
17.8629
6.01665
30.0062
-3.45766
-2.73512
-2.1671
2.41656
-4.90128
-1.53983
5.43377
-7.18752
-4.26558
5.1047
-7.17798
-2.49317
-2.05771
4.65453
3.71654
6.09167
-2.79626
248.068
-2.52939
-3.32993
-2.61871
-2.98467
3.31926
-0.131855
-2.5045
-4.77996
2.54342
-5.1905
-2.43543
9.65371
4.05156
-3.61508
-0.935558
-4.90612
5.36568
-4.03492
4.3197
-2.19848
-4.17126
4.98889
4.94265
5.54381
-1.75016
-3.10963
-4.17618
2.15531
1.63163
-7.62084
3.78435
3.38892
2.89277
-2.54655
6.04487
-2.4285
-5.02119
-3.0008
-4.91212
-6.41172
5.70647
5.25403
-3.97512
-4.12601
-6.626
-5.24805
1.88603
-5.22804
-4.15483
529.574
-3.72002
5.48645
-0.36482
-5.6288
-2.24562
-2.53294
4.12114
-4.41687
5.15601
-2.05992
2.98666
2.31757
-2.80671
4.68599
-2.60069
36.9916
5.89006
-2.57274
-2.49041
-3.72027
-3.59195
3.51696
3.85796
5.65194
-2.6564
609.841
-0.0774919
-4.05207
-3.09883
4.3866
-4.59692
166.6
-1.97411
-7.25083
-2.45273
5.40066
-6.6576
95.1726
55.2906
6.07246
7.12717
-3.36956
-3.59075
4.97908
199.867
2.46937
-5.8489
1.90189
-4.59771
-2.47514
-6.98166
4.56881
5.83519
-3.91239
-2.71
6.27127
-2.42449
205.174
3.20737
5.31954
3.5856
-3.25909
1.59108
-2.49868
-5.30847
180.181
119.639
-4.78819
-1.27789
6.01056
867.724
-7.10017
-1.48298
-4.03601
-5.02543
-3.06085
1.8285
5.16495
-2.71006
2.81158
5.54531
-2.73005
-7.45442
-2.77939
224.252
-2.53917
21.4923
-3.95192
3.28225
-0.0410051
5.47539
-2.46961
4.83256
-2.2925
-5.95172
29.8454
-3.65415
-1.65216
-5.94842
-2.58939
-4.32507
55.2405
5.06201
4.24451
-4.18697
-2.74552
2.31065
-2.96278
-3.82916
5.56785
-2.54446
3.96154
5.36421
5.15945
0.97575
-1.01201
-2.53561
-4.94726
94.4332
-7.13221
-3.33461
2.90813
-1.84996
-3.6126
161.076
6.22009
3.67905
5.33847
-5.6805
5.70698
1.24453
4.64672
4.61255
-4.93808
-4.57722
5.64599
-4.45636
-3.50331
2.43776
-4.78614
-3.45075
5.25287
-6.26
-2.78338
3.39137
-3.3022
1.69512
-3.48415
-2.207
-5.03476
-3.30683
747.468
-2.54286
6.20893
-2.73782
0.478682
991.233
4.31863
-2.68236
1.86789
-7.06368
4.04053
-6.04359
-3.70785
5.50863
-2.44808
-6.54674
-2.49975
4.50236
3.0805
5.88284
-2.08375
-5.13526
-4.73813
-2.52803
-1.43557
4.87075
-2.70519
5.8218
0.912319
5.4316
5.06987
-3.20865
3.75951
5.11513
-6.22194
2.71029
-1.30495
-2.69381
5.09201
284.912
-2.52993
9.51626
3.47259
-6.30896
-1.58377
-2.43999
1.0399
-2.93197
-2.73844
-3.793
-4.72316
2.25859
-3.02443
171.183
-4.79301
-4.14429
-4.03155
-3.83142
-6.38588
4.76838
-5.59986
5.2701
-1.76439
3.16566
6.06498
-1.13285
1.25737
-4.347
5.68234
-2.80673
-4.46456
-2.99735
-1.00235
-3.72687
5.77802
5.99934
-3.39712
5.61267
-0.075079
2.81082
-2.30121
-2.01188
-5.80825
1.72228
734.735
-3.5366
5.17968
-2.93416
-4.83778
-6.33964
-2.56461
2.38359
-6.38618
0.478999
4.19126
-2.64934
6.84894
-5.16033
3.90022
-2.50012
-3.4849
-2.5329
5.08131
-3.44043
5.52104
6.20323
-2.51075
1.87923
-2.74991
5.45844
-5.8939
4.55823
0.717333
104.802
3.60375
-4.93479
132.35
5.01361
53.6944
5.37672
-5.62029
340.813
-3.26474
3.2987
-4.46229
5.86145
-2.97301
-4.6739
1.13821
-2.49068
5.79369
-2.77005
2.97595
-2.22569
-1.80712
-5.19629
4.30039
-2.46377
-2.51345
-4.29382
19.1573
-6.00479
-2.44986
4.81716
2.61443
-0.187226
-3.83046
1.32644
318.261
164.503
3.98499
4.51012
-3.15902
-3.17321
2.19555
3.69172
-2.45383
4.27054
-5.05842
-5.03646
5.19751
0.110662
5.64422
4.45384
-5.44336
3.38938
5.51255
-5.37529
-2.84102
-4.02001
397.448
1.71612
5.56841
-5.5449
-2.58719
-3.92383
-3.74791
-2.64312
-2.42966
3.07115
0.584537
-4.29234
-4.72401
-4.19501
171.421
-2.68954
-3.00443
-2.81558
2.72049
-3.49976
-1.41612
0.366209
357.061
4.71894
-3.65603
-4.38682
6.04565
5.97597
2.3194
-3.01816
214.621
0.789403
5.06011
-5.47528
-5.32773
-3.953
-5.53497
-0.991921
-3.48173
-2.08594
-1.96168
-2.93988
1.86305
-4.46155
5.40406
1.19477
-2.30324
-3.65691
-0.592309
-4.55368
-3.63953
3.8592
-2.27148
4.96661
3.55449
86.9632
5.3161
-2.92221
-4.98291
0.0336671
-3.39664
5.8303
-5.4156
5.75744
1.36392
3.23748
-2.28509
-3.20052
6.19229
-5.22167
2.90371
0.249784
-1.51143
-2.7187
2.54211
169.813
5.29484
4.15389
-3.24633
-2.52396
-5.40446
-2.34136
2.14083
-5.00252
-1.71107
-1.28842
0.673072
-2.80643
-5.05907
-2.19389
-3.35994
5.60088
3.64846
1.6969
4.51954
-1.8528
-1.33003
6.11547
4.77788
-1.85677
-4.73279
-1.05699
5.5212
-4.28021
6.29945
6.29125
-4.04695
5.25456
0.85378
-4.1751
3.33563
-0.537128
-1.98003
5.20258
-5.27791
-4.0904
-3.93359
10.7004
-3.0265
3.00713
-2.05557
-3.17059
-5.1395
-3.88816
-5.1338
2.65411
3.94902
-0.300428
-3.84915
-3.69274
5.94547
2.26557
-5.21849
6.27886
6.01822
5.0219
1.21929
-2.33119
0.159106
1.83747
-1.03364
332.55
-3.15188
-3.60953
-5.13784
-4.91297
-4.79071
-4.32454
5.34823
-3.62744
336.787
-2.57936
-2.26266
6.26965
-2.5474
0.344569
167.949
5.79432
-2.66741
-3.43978
1.37484
-4.40408
4.2375
4.68349
5.71837
-4.8691
-4.76433
-2.8686
379.977
-1.43489
-4.41769
-4.05551
4.93196
-5.19043
4.42008
-2.38105
3.52531
6.16994
0.729561
-1.61343
-1.00298
-2.77219
3.20145
-1.39015
300.109
0.835088
-5.07
980.174
-0.763472
2.86029
5.25595
-3.77758
-4.92709
-2.97349
3.8342
-3.39366
2.49611
-0.340295
830.167
-3.34712
-4.93778
2.10237
-4.61687
5.55799
-5.15948
16.3111
404.38
-5.12762
0.894202
-4.09309
251.872
136.257
-1.94069
-0.145079
1.677
393.637
-4.9432
5.47594
5.16907
6.14645
-2.9985
-4.01743
0.244271
-2.07951
-4.23037
-5.0307
-4.88662
-5.1105
4.12946
-3.53906
3.62585
-4.54785
-4.6651
-3.21608
5.91201
5.98652
-5.05883
1.22484
-2.71802
3.30757
257.399
-2.48628
2.97273
-4.71864
2.61655
-4.01903
65.3574
-3.87518
527.446
1090.57
-2.82007
-4.32153
2.23281
6.26151
599.256
0.412225
5.48129
4.75106
1.81864
3.92916
-4.30264
-1.34953
-3.79952
5.75814
4.99596
-3.664
-0.777171
-5.05868
-1.14711
4.49443
5.68084
5.81993
-3.78388
-4.95171
6.1404
-4.46365
-3.23393
-1.65465
-5.10108
-3.03895
-0.586184
-4.69829
1.37621
-4.17471
940.796
-3.33784
5.39714
-5.05978
-5.10257
-2.26041
0.758961
-1.42966
-1.83547
-0.219397
999.35
-4.75403
-4.43594
-3.59469
-3.9266
-1.64658
4.2182
-5.12479
-1.83525
-1.79378
5.41176
-0.0496108
-4.16417
-1.46307
5.2305
-4.78281
-3.15277
6.14267
-5.05093
-4.18281
-4.57014
0.915644
-2.53894
-1.19767
-4.92657
-4.23072
4.90913
-3.57122
-4.79518
4.66026
-2.64955
-2.1188
5.43335
-4.03659
5.51877
-4.92046
-2.14711
-2.25341
754.349
4.39951
-4.78117
6.24253
-2.87614
-4.32595
358.409
-3.70448
0.295493
-5.13261
-4.4315
5.97628
-2.47126
-4.61002
-5.1208
-3.35369
294.123
208.5
5.87932
821.542
-4.75242
5.95437
-1.13903
-5.03044
-1.46674
-3.95414
-5.05298
-2.98584
55.1974
-2.32814
-0.837665
-0.960124
-4.94834
-5.14485
944.511
-2.69709
-1.62957
5.14704
-0.970074
3.82914
5.4555
3.52032
-3.39076
6.10801
747.403
593.624
3.19505
-4.62789
1144.83
-4.09002
-0.638609
288.643
2.85198
-4.36099
2.48756
-3.96799
292.239
2.09758
0.452242
169.133
-4.50372
-4.85942
1093.75
-2.91984
1.68048
-2.05707
5.72527
-3.51188
-1.90497
-5.03286
-0.474102
-5.2019
-3.21398
4.86346
-2.70879
4.12273
-5.14188
517.804
-3.74554
-4.18011
-2.45896
5.6476
11.3568
6.21501
1014.94
1.23901
-4.49746
-4.35155
-2.82093
-0.147949
-3.87533
5.37538
-4.13273
-3.33063
-3.16194
-4.11841
-5.08048
5.67202
-4.95052
-3.84027
-4.26466
-5.20532
-5.1187
-3.04819
4.39585
-2.28076
-1.45529
4.65588
-3.5625
-4.68322
-3.62316
-5.05126
-4.2947
-4.98312
0.782713
-5.23355
-1.88414
-1.30537
4.90427
-2.53249
0.00531433
-5.1532
-3.1614
127.741
-2.14559
-3.77461
-1.7439
-4.80126
-2.65255
-5.2525
803.481
-4.94337
937.587
-4.84799
5.59468
-3.68415
1201.59
-4.72668
-4.51998
-3.30359
-1.00747
1152.84
-2.37395
-3.92544
1008.91
6.07632
6.18321
6.09633
-2.88735
-4.35413
-4.41413
732.503
-4.25486
-4.31112
5.14179
-3.38943
5.92487
-2.73022
-2.1251
-4.05157
-2.49607
-0.856048
5.8502
-4.00161
0.326819
-2.99984
-1.99692
-4.14804
-1.73898
802.333
3.92893
-5.17778
510.736
3.62602
-3.22614
3.30692
-2.84461
-5.02227
2.97073
-3.50668
-4.28957
2.61444
-2.58817
-4.28322
5.36958
2.23387
1.82648
-1.60435
4.64942
-2.70161
-5.07082
-0.555714
-2.35548
-5.23651
398.613
256.815
205.094
1.39339
-1.33563
-3.73994
-3.07081
-5.32469
-2.23613
1148.77
-5.16061
-1.99805
-2.92476
-5.24189
5.58824
5.69655
729.193
0.941634
-5.35513
-3.34007
6.15101
-4.22822
-2.46317
-2.79314
-4.3824
-1.87536
4.2174
4.48488
-3.85958
-3.18278
4.74049
-4.91292
-0.110689
-2.57431
-0.410179
1218.01
-5.01385
-4.64219
-4.08697
5.61758
-4.08929
-4.86427
-2.90142
-3.03554
-4.59015
-4.35883
-1.63138
-4.70798
-2.23973
4.98468
-4.63356
-4.41156
-1.1983
5.86813
-4.41596
0.484555
-4.76102
508.22
362.845
723.816
-4.43511
-2.12601
-2.67798
-3.11738
-4.42208
-3.25693
1219.76
6.04812
-3.81844
-2.78285
-4.7966
-4.96261
-1.90132
-4.47081
-2.99216
-5.34911
-1.50625
-3.7136
-3.75187
-3.93832
5.21827
-3.56831
-4.25571
-2.46776
-4.46351
-0.923744
-5.01748
-3.40775
-5.13218
1002.57
-4.68884
0.0401589
5.44171
-2.36134
-5.39711
6.12148
-4.74036
-3.09419
-3.223
-4.91652
-2.15094
-4.21798
-3.90251
-4.84911
-4.52069
-5.27315
-4.38479
-1.78642
-5.32159
-4.53078
-2.8833
581.218
-2.58341
-5.19836
-2.6835
-4.12029
-1.25592
-4.63153
5.79719
5.65794
-4.79445
935.015
-3.68315
-4.69492
-4.5075
-4.53583
-2.98103
-3.3653
-5.41267
-4.55897
-4.9083
-2.0446
-4.58912
-2.38474
-4.4864
1139.78
1214.31
-2.79382
-4.57644
-4.53888
5.89984
45.8077
-3.29328
-4.02841
-4.86177
-5.08267
-3.17232
-4.74979
-0.516458
-0.376058
-2.88622
-2.60558
-2.28511
-1.55733
-4.20809
-4.33887
-0.789147
-4.51281
-3.42831
-3.06763
-2.72581
5.8256
-2.51117
-4.82368
-1.8332
930.363
791.667
-4.96604
-2.81222
-4.6355
-5.32006
-5.399
-4.92045
-4.66016
-3.51893
-4.68812
-1.44515
-4.67042
-4.71441
-2.98185
-4.46663
-2.08797
-3.97428
-1.13295
-3.27601
-4.61614
-3.40186
-3.7327
-3.85363
-4.79404
-4.06908
-4.88214
-4.64521
-2.32543
-5.1523
-3.16561
-2.91754
-2.54842
-1.22312
-1.52924
-1.42286
-5.03645
6.09736
-4.99667
-3.07318
-2.7603
-4.8515
-4.75527
-4.59641
-5.32626
-5.28026
-5.23866
-3.57513
-4.7898
-3.54104
-3.00128
-4.81316
-4.96393
-4.77265
-1.73019
-4.73589
-2.95183
-2.87667
-2.67986
-4.93776
-4.918
-1.99266
-5.10665
-4.82814
-2.23654
-4.88814
-4.94997
-2.46473
-3.91722
-5.11445
-5.17107
-5.09747
-4.90584
-4.98239
995.865
1129.77
-5.14914
1193.84
-5.0874
1201.55
-1.97781
-2.06698
-3.69174
-1.8092
-1.71209
-1.10617
-2.30606
-2.22367
-0.758195
-0.886731
-5.16629
-5.21805
-5.36635
-5.19173
-5.13776
-5.24964
-5.20007
-5.15755
-2.93168
-2.86365
-2.73733
-2.66588
-2.45242
-2.52896
-5.28617
-4.96768
-1.52087
-5.00401
-5.06593
-5.03173
6.02447
6.07778
601.714
46.367
515.059
6.06659
5.87987
4.65877
5.92196
5.80717
6.00833
927.224
-1.59155
561.144
409.001
6.00015
542.003
4.44889
642.698
517.604
4.90146
587.104
6.86597
44.5114
567.599
6.31249
6.20181
548.544
593.37
-39.0017
581.613
436.9
612.359
334.904
505.078
656.338
448.195
500.039
479.005
611.858
60.1503
4.51004
437.374
7.12643
6.84362
712.966
672.924
505.831
25.5141
-1.66033
189.161
1181.67
1170.2
502.783
685.477
646.153
534.219
569.585
620.999
660.851
1395.33
1264.37
404.737
53.0815
279.69
-1.75243
431.979
422.237
6.66189
327.37
-6.05723
360.69
31.5939
261.773
55.4315
5.83896
450.89
84.4792
224.308
22.479
385.703
-2.92361
7.71573
16.3528
6.35829
203.505
-3.19153
259.364
-4.18941
447.975
5.51365
8.3029
-3.39129
243.803
119.638
1440.41
5.30335
-2.76471
199.126
-3.06806
4.94415
279.056
4.90389
-3.04191
95.2924
4.75382
114.812
172.238
203.526
-132.614
4.86954
1296.5
1269.55
-3.19117
)
;

boundaryField
{
    patch0
    {
        type            calculated;
        value           nonuniform List<scalar> 
4010
(
4.44089e-16
4.44089e-16
-0.524342
-0.524342
-1.19222
-1.19222
-1.37476
-1.37476
-0.569334
-0.569334
-1.71087
-1.71087
-1.96515
-1.96515
-2.21323
-2.21323
-2.29843
-2.29843
-0.996822
-0.996822
-2.45102
-2.45102
-2.56898
-2.56898
67.0598
67.0598
-2.77659
-2.77659
-6.44394
-6.44394
-7.19915
-7.19915
54.1485
54.1485
-2.86211
-2.86211
1.88356
1.88356
-3.09543
-3.09543
123.883
123.883
-2.25758
-2.25758
5.30051
5.30051
-3.15425
-3.15425
0.12451
0.12451
-2.40166
-2.40166
-6.98454
-6.98454
-0.768494
-0.768494
-0.792214
-0.792214
-1.11415
-1.11415
6.0743
6.0743
-6.62097
-6.62097
12.1825
12.1825
-4.21856
-4.21856
-0.840797
-0.840797
5.35656
5.35656
-4.55961
-4.55961
-0.84884
-0.84884
-1.17281
-1.17281
14.1316
14.1316
-1.85667
-1.85667
76.7242
76.7242
2.7896
2.7896
5.54441
5.54441
-1.49746
-1.49746
-0.294373
-0.294373
-0.36062
-0.36062
-1.35472
-1.35472
265.428
265.428
106.814
106.814
5.57414
5.57414
95.9399
95.9399
4.17512
4.17512
5.63794
5.63794
21.8355
21.8355
-1.03215
-1.03215
2.09649
2.09649
-1.0003
-1.0003
-0.997183
-0.997183
-5.18113
-5.18113
5.45637
5.45637
-7.06051
-7.06051
5.40255
5.40255
-0.65685
-0.65685
5.84397
5.84397
-1.36612
-1.36612
-6.20396
-6.20396
5.33876
5.33876
-0.664227
-0.664227
5.45981
5.45981
47.9093
47.9093
-7.09639
-7.09639
-1.05163
-1.05163
-1.29909
-1.29909
-1.40344
-1.40344
35.9909
35.9909
-1.5391
-1.5391
-1.47817
-1.47817
-1.40326
-1.40326
5.38852
5.38852
-2.50928
-2.50928
-5.34354
-5.34354
-1.45285
-1.45285
112.963
112.963
1.89258
1.89258
5.25321
5.25321
-1.03362
-1.03362
-5.90127
-5.90127
137.322
137.322
64.3468
64.3468
-5.61298
-5.61298
-2.65049
-2.65049
3.46249
3.46249
1.50805
1.50805
86.8046
86.8046
5.96108
5.96108
-1.58395
-1.58395
-2.56465
-2.56465
-5.58451
-5.58451
37.1199
37.1199
-1.13259
-1.13259
103.892
103.892
-4.83461
-4.83461
-4.61942
-4.61942
4.761
4.761
-1.76681
-1.76681
-1.30227
-1.30227
19.9661
19.9661
-4.05248
-4.05248
0.2688
0.2688
-1.71793
-1.71793
-1.06137
-1.06137
-0.692688
-0.692688
-1.32278
-1.32278
-1.46818
-1.46818
88.3131
88.3131
-1.23239
-1.23239
-6.85413
-6.85413
4.74676
4.74676
-1.55849
-1.55849
71.0502
71.0502
858.386
858.386
107.531
107.531
60.1646
60.1646
-6.56621
-6.56621
2.45821
2.45821
34.7108
34.7108
-1.58368
-1.58368
-1.0594
-1.0594
974.055
974.055
-1.80418
-1.80418
-1.31419
-1.31419
39.3071
39.3071
-1.29666
-1.29666
100.702
100.702
-0.579312
-0.579312
-0.989705
-0.989705
-1.11731
-1.11731
-3.41536
-3.41536
-0.784993
-0.784993
-1.20718
-1.20718
-6.81732
-6.81732
-5.08063
-5.08063
-3.45748
51.3295
51.3295
77.2748
-1.55749
-1.55749
861.511
861.511
11.3863
11.3863
45.269
45.269
-3.04828
-3.04828
4.71734
4.71734
4.05482
4.05482
967.45
967.45
1061.19
32.5471
32.5471
-1.53726
-1.53726
-1.82251
-1.82251
4.60818
4.60818
1028.74
1028.74
-0.9802
-0.9802
-1.96235
-1.96235
-1.06036
-1.06036
-1.22044
-1.22044
37.9665
37.9665
-1.74294
-1.74294
826.917
826.917
52.9589
52.9589
-1.50007
-1.50007
-2.73398
-2.73398
1131.03
1131.03
-1.62713
-1.62713
-1.3505
-1.3505
0.396333
0.396333
-2.13083
-2.13083
-1.82454
-1.82454
-4.17522
-4.17522
-1.26502
-1.26502
2.90249
2.90249
-1.11677
-1.11677
49.0727
49.0727
5.34519
5.34519
-2.12823
-2.12823
-1.21442
-1.21442
-6.06789
-6.06789
-1.47143
-1.47143
-3.436
-3.436
290.002
290.002
-0.431493
-0.431493
29.0513
29.0513
-3.05024
-3.05024
-1.74364
-1.74364
-1.36173
-1.36173
14.0612
14.0612
-2.28619
-2.28619
-2.0371
-2.0371
-2.36103
-2.36103
-2.73522
-2.73522
912.845
912.845
1006.59
-4.50695
-4.50695
-3.86072
-3.86072
-0.108454
-0.108454
30.1994
30.1994
53.7456
53.7456
-0.53653
-0.53653
-1.61255
-1.61255
-2.48043
-2.48043
-0.601427
-0.601427
-2.79854
-2.79854
-2.54188
-2.54188
49.1711
49.1711
50.454
50.454
39.631
39.631
39.6841
733.051
733.051
-1.37747
-1.37747
-4.00074
-4.00074
-3.6335
-3.6335
-4.5182
-4.5182
-1.65405
-1.65405
-2.63002
-2.63002
11.1957
11.1957
-2.615
-2.615
-1.6199
-1.6199
11.096
11.096
-1.14335
-1.14335
-1.7914
-1.7914
-4.36954
-4.36954
-2.57473
-2.57473
-4.64347
-4.64347
-2.1846
-2.1846
-2.06902
-2.06902
-3.28088
-3.28088
19.4457
19.4457
25.9283
25.9283
-4.59362
-4.59362
-5.10885
-5.10885
39.6655
39.6655
-3.456
-3.456
-8.16557
-8.16557
-6.36076
-3.9185
-3.9185
-2.83479
-2.83479
-1.8584
-1.8584
822.876
822.876
916.617
-6.14786
-6.14786
-12.5319
-12.5319
-3.61303
-3.61303
29.5747
29.5747
4.47359
4.47359
68.3993
68.3993
-2.79942
-2.79942
-1.46198
-1.46198
-1.52169
-1.52169
-1.97407
-1.97407
-0.718864
-0.718864
798.892
798.892
-3.17474
-3.17474
-1.47754
-1.47754
-1.81451
-1.81451
-4.65679
-4.65679
-4.01278
-4.01278
0.346825
0.346825
7.59259
7.59259
-2.96658
-2.96658
4.10029
4.10029
-2.03786
-2.03786
-4.59972
-4.59972
-1.61401
-1.61401
-0.477554
-0.477554
-1.39054
-1.39054
75.0349
75.0349
-1.81387
-1.81387
24.6302
24.6302
1.81464
1.81464
47.0945
47.0945
0.751834
0.751834
2.19655
2.19655
-7.44841
-7.44841
-4.51023
-4.51023
-2.62216
-2.62216
-2.91206
-2.91206
-2.92636
-2.92636
-1.63902
-1.63902
5.35594
5.35594
94.459
94.459
978.094
978.094
1044.88
-5.08708
-5.08708
-3.36265
-3.36265
107.705
107.705
-1.39635
-1.39635
-2.26394
-2.26394
851.964
851.964
-3.30247
-3.30247
-13.7105
-13.7105
-2.63745
-2.63745
-1.18725
-1.18725
-4.69175
-4.69175
-4.12478
-4.12478
106.922
106.922
89.2962
89.2962
-5.13146
-5.13146
59.1032
59.1032
-1.74299
-1.74299
-4.50299
-4.50299
980.76
980.76
1070.54
-1.82008
-1.82008
-3.61016
-3.61016
-2.57432
-2.57432
-3.2105
-3.2105
-8.44924
-8.44924
15.5548
15.5548
-3.38721
-3.38721
-1.63343
-1.63343
-1.46272
-1.46272
65.5924
65.5924
4.83097
4.83097
-3.43243
-3.43243
4.17708
4.17708
-1.96066
-1.96066
26.2375
26.2375
0.790315
0.790315
-3.47458
-3.47458
-2.93639
-2.93639
-2.56474
-2.56474
-1.31257
-1.31257
35.3972
35.3972
-2.16458
-2.16458
26.938
26.938
-4.19427
-4.19427
-2.33448
-2.33448
-5.84974
-5.84974
-9.0926
-9.0926
-1.57164
-1.57164
-2.45212
-2.45212
0.207058
0.207058
-5.97559
-5.97559
4.38754
4.38754
-3.27643
-3.27643
-1.59067
-1.59067
-4.77205
-4.77205
-5.25401
-5.25401
-2.98202
-2.98202
-3.59439
-3.59439
-2.48947
-2.48947
-2.2297
-2.2297
0.326297
0.326297
3.38413
3.38413
54.4124
54.4124
-5.22478
-5.22478
-6.97427
-6.97427
25.7245
25.7245
-6.38392
-6.38392
4.81373
4.81373
-10.1386
-10.1386
-4.9121
-4.9121
-0.715342
-0.715342
67.727
67.727
-4.04984
-4.04984
84.4679
84.4679
-2.05056
-2.05056
733.362
733.362
-3.93758
-3.93758
6.39267
6.39267
6.05928
6.05928
-4.76821
-4.76821
-4.6341
-4.6341
-3.78621
-3.78621
-5.62308
-5.62308
0.318627
0.318627
-2.64357
-2.64357
3.79262
3.79262
26.3481
26.3481
-3.94921
-3.94921
-3.21877
-3.21877
-3.40883
-3.40883
-3.35565
-3.35565
-1.78901
-1.78901
-5.71146
-5.71146
-5.42281
-5.42281
52.5483
52.5483
-4.95137
-4.95137
-5.83976
-5.83976
2.84143
2.84143
-6.48551
-6.48551
-6.78195
-6.78195
-1.95579
-1.95579
-7.83815
-7.83815
-4.21618
-4.21618
28.9488
28.9488
-3.23118
-3.23118
-1.50469
-1.50469
-5.99967
-5.99967
-8.37661
-8.37661
-2.89151
-2.89151
9.26268
9.26268
4.19309
4.19309
-5.96315
-5.96315
-5.88267
-5.88267
-3.40312
-3.40312
39.2803
39.2803
39.3621
-4.75279
-4.75279
3.20558
3.20558
-2.54081
-2.54081
-6.96096
-6.96096
785.805
785.805
-1.80923
-1.80923
66.3525
66.3525
25.2888
25.2888
1205.88
1205.88
1254.25
-4.70111
-4.70111
-2.95231
-2.95231
-5.98622
-5.98622
3.07791
3.07791
-4.63401
-4.63401
-4.72381
-4.72381
4.26515
4.26515
-4.20811
-4.20811
-3.03337
-3.03337
-4.34715
-4.34715
-2.51196
-2.51196
-2.60528
-2.60528
-4.4534
-4.4534
5.01925
5.01925
-1.77843
-1.77843
-4.18069
-4.18069
16.783
16.783
-2.82249
-2.82249
62.1766
62.1766
4.47102
4.47102
-3.76564
-3.76564
-2.03147
-2.03147
-1.22124
-1.22124
3.75014
3.75014
-1.91921
-1.91921
-5.37878
-5.37878
-2.49949
-2.49949
-6.48805
-6.48805
4.32366
4.32366
-3.68579
-3.68579
-4.73023
-4.73023
-3.57102
-3.57102
15.0999
15.0999
-3.30214
-3.30214
3.65425
3.65425
18.932
18.932
-6.16863
-6.16863
-5.48389
-5.48389
199.114
199.114
-6.11499
-6.11499
25.7293
25.7293
47.622
-4.65471
-4.65471
-1.7184
-1.7184
-5.1928
-5.1928
-5.46457
-5.46457
-5.8191
-5.8191
3.82817
3.82817
-4.28477
-4.28477
-2.74502
-2.74502
-9.9046
-9.9046
-5.08368
-5.08368
-3.27143
-3.27143
-5.00918
-5.00918
4.35586
4.35586
-6.92649
-6.92649
-2.30265
-2.30265
3.3249
3.3249
9.3724
9.3724
4.53282
4.53282
61.234
61.234
-5.63731
-5.63731
-5.61785
-5.61785
-4.6737
-4.6737
-3.57233
-3.57233
-1.4578
-1.4578
-3.70382
-3.70382
4.07382
4.07382
-1.46124
-1.46124
-3.12821
-3.12821
7.99677
7.99677
-2.20727
-2.20727
-0.995547
-0.995547
-4.88089
-4.88089
-6.15331
-6.15331
-6.8745
-6.8745
-4.74047
-4.74047
-4.14303
-4.14303
-3.55969
-3.55969
-5.74255
-5.74255
3.42324
3.42324
3.35582
3.35582
-1.47418
-1.47418
-5.61671
-5.61671
-3.83751
-3.83751
-2.19413
-2.19413
13.5123
13.5123
-3.70321
-3.70321
4.13127
4.13127
-1.91432
-1.91432
-4.10088
-4.10088
-2.88838
-2.88838
-6.67713
-6.67713
-4.05033
-4.05033
1.94836
1.94836
65.9305
65.9305
-3.89867
-3.89867
-5.26648
-5.26648
18.5903
18.5903
3.39404
3.39404
68.1737
68.1737
-2.48792
-2.48792
-4.52367
-4.52367
-7.48926
-7.48926
3.76833
3.76833
-3.58292
-3.58292
-2.04389
-2.04389
-2.77276
-2.77276
-4.58664
-4.58664
-4.84225
-4.84225
-5.14238
-5.14238
-5.36554
-5.36554
3.31537
3.31537
-4.84654
-4.84654
-3.99089
-3.99089
-6.99784
-6.99784
4.16366
4.16366
-4.77555
-4.77555
-2.5666
-2.5666
-3.42917
-3.42917
-4.1932
-4.1932
-4.7274
-4.7274
-1.62046
-1.62046
5.45745
5.45745
-6.41008
-6.41008
-4.9254
-4.9254
4.43737
4.43737
-5.14895
-5.14895
3.82431
3.82431
5.1908
5.1908
31.7997
31.7997
-5.49817
-5.49817
-4.46074
-4.46074
5.60787
5.60787
8.64098
8.64098
2.54398
2.54398
3.37128
3.37128
23.9273
23.9273
5.49667
5.49667
-1.95206
-1.95206
-3.17734
-3.17734
-2.60763
-2.60763
-1.31695
-1.31695
6.23115
6.23115
-6.29141
-6.29141
-2.82811
-2.82811
-2.71024
-2.71024
-2.94468
-2.94468
-6.47129
-6.47129
3.92401
3.92401
7.05158
7.05158
5.10761
5.10761
5.41452
5.41452
5.65668
5.65668
175.396
175.396
-1.08413
-1.08413
2.6589
2.6589
4.2369
4.2369
34.2067
34.2067
-3.38401
-3.38401
11.7685
11.7685
5.06191
5.06191
-2.46767
-2.46767
-2.02902
-2.02902
-1.39883
-1.39883
3.43809
3.43809
-3.05349
-3.05349
-2.72975
-2.72975
1.02981
1.02981
-4.46605
-4.46605
-1.82715
-1.82715
-4.72525
-4.72525
5.30989
5.30989
67.322
67.322
-3.87419
-3.87419
4.91035
4.91035
3.0036
3.0036
-7.61062
-7.61062
-4.29383
-4.29383
-4.83109
-4.83109
5.8944
5.8944
5.43835
5.43835
-4.18864
-4.18864
4.94821
4.94821
-2.84111
-2.84111
-0.246705
-0.246705
-4.33872
-4.33872
3.98181
3.98181
26.8997
26.8997
5.82919
5.82919
5.61312
5.61312
-3.71726
-3.71726
-5.1436
-5.1436
-1.96495
-1.96495
-5.90007
-5.90007
4.48209
4.48209
6.08755
6.08755
-4.38151
-4.38151
-5.08434
-5.08434
11.922
11.922
3.65941
3.65941
-5.95482
-5.95482
-5.24315
-5.24315
-2.29164
-2.29164
4.98809
4.98809
4.9559
4.9559
2.54564
2.54564
-5.32135
-5.32135
5.24925
5.24925
-2.25514
-2.25514
3.09639
3.09639
-6.75699
-6.75699
-4.77184
-4.77184
17.8629
17.8629
6.01665
6.01665
30.0062
30.0062
-3.45766
-3.45766
-2.73512
-2.73512
-2.1671
-2.1671
2.41656
2.41656
-4.90128
-4.90128
-1.53983
-1.53983
5.43377
5.43377
-7.18752
-7.18752
-4.26558
-4.26558
5.1047
5.1047
-7.17798
-7.17798
-2.49317
-2.49317
-2.05771
-2.05771
4.65453
4.65453
3.71654
3.71654
6.09167
6.09167
-2.79626
-2.79626
248.068
248.068
-2.52939
-2.52939
-3.32993
-3.32993
-2.61871
-2.61871
-2.98467
-2.98467
3.31926
3.31926
-0.131855
-0.131855
-2.5045
-2.5045
-4.77996
-4.77996
2.54342
2.54342
-5.1905
-5.1905
-2.43543
-2.43543
9.65371
9.65371
4.05156
4.05156
-3.61508
-3.61508
-0.935558
-0.935558
-4.90612
-4.90612
5.36568
5.36568
-4.03492
-4.03492
4.3197
4.3197
-2.19848
-2.19848
-4.17126
-4.17126
4.98889
4.98889
4.94265
4.94265
5.54381
5.54381
-1.75016
-1.75016
-3.10963
-3.10963
-4.17618
-4.17618
2.15531
2.15531
1.63163
1.63163
-7.62084
-7.62084
3.78435
3.78435
3.38892
3.38892
2.89277
2.89277
-2.54655
-2.54655
6.04487
6.04487
-2.4285
-2.4285
-5.02119
-5.02119
-3.0008
-3.0008
-4.91212
-4.91212
-6.41172
-6.41172
5.70647
5.70647
5.25403
5.25403
-3.97512
-3.97512
-4.12601
-4.12601
-6.626
-6.626
-5.24805
-5.24805
1.88603
1.88603
-5.22804
-5.22804
-4.15483
-4.15483
529.574
529.574
-3.72002
-3.72002
5.48645
5.48645
-0.36482
-0.36482
-5.6288
-5.6288
-2.24562
-2.24562
-2.53294
-2.53294
4.12114
4.12114
-4.41687
-4.41687
5.15601
5.15601
-2.05992
-2.05992
2.98666
2.98666
2.31757
2.31757
-2.80671
-2.80671
4.68599
4.68599
-2.60069
-2.60069
36.9916
36.9916
5.89006
5.89006
-2.57274
-2.57274
-2.49041
-2.49041
-3.72027
-3.72027
-3.59195
-3.59195
3.51696
3.51696
3.85796
3.85796
5.65194
5.65194
-2.6564
-2.6564
609.841
609.841
-0.0774919
-0.0774919
-4.05207
-4.05207
-3.09883
-3.09883
4.3866
4.3866
-4.59692
-4.59692
166.6
166.6
-1.97411
-1.97411
-7.25083
-7.25083
-2.45273
-2.45273
5.40066
5.40066
-6.6576
-6.6576
95.1726
95.1726
55.2906
55.2906
55.1828
6.07246
6.07246
7.12717
7.12717
-3.36956
-3.36956
-3.59075
-3.59075
4.97908
4.97908
199.867
199.867
2.46937
2.46937
-5.8489
-5.8489
1.90189
1.90189
-4.59771
-4.59771
-2.47514