/*--------------------------------*- C++ -*----------------------------------*\
  =========                 |
  \\      /  F ield         | OpenFOAM: The Open Source CFD Toolbox
   \\    /   O peration     | Website:  https://openfoam.org
    \\  /    A nd           | Version:  8
     \\/     M anipulation  |
\*---------------------------------------------------------------------------*/
FoamFile
{
    version     2.0;
    format      ascii;
    class       volScalarField;
    location    "0.4";
    object      p_rgh;
}
// * * * * * * * * * * * * * * * * * * * * * * * * * * * * * * * * * * * * * //

dimensions      [1 -1 -2 0 0 0 0];

internalField   nonuniform List<scalar> 
1924
(
1.91151
0.982595
1.09195
3.03382
1.00657
4.58635
3.15815
0.947083
0.056204
0.874337
0.38246
0.397936
839.74
-0.133121
6.02805
6.60239
1081.02
-0.147363
23.1221
-0.285059
1106.94
509.033
8.5131
-0.278065
126.5
385.364
71.0961
0.884327
0.869376
0.493164
37.0129
1029.33
406.5
609.22
0.871724
6.81022
1400.55
0.874314
0.39701
531.344
1334.17
1071.71
1353.7
6.63231
0.142567
118.68
1.04278
0.44307
928.413
949.704
6.19651
1222.3
24.1453
6.1767
803.337
0.790196
63.8581
0.697838
0.654721
103.638
6.42845
1.36875
6.30413
0.707326
6.28789
0.489606
-2.41808
7.28545
1.04039
6.17537
1155.24
-3.073
0.392177
0.42142
0.414585
39.8655
0.422349
0.426745
0.398315
6.18883
0.200483
77.6155
0.0693809
1180.13
115.55
6.71994
0.669137
-1.63108
866.732
1120.65
-1.52074
81.6657
668.403
471.091
1320.18
6.32915
0.428538
0.165063
85.1393
40.7289
0.824843
1281.77
7.32473
292.554
494.069
0.410006
0.656095
491.62
38.6924
203.801
0.388978
0.744158
0.972618
0.202846
0.39091
1110.36
1.6113
7.48796
6.34439
0.402523
842.197
1045.87
975.081
1023.55
-2.90129
250.99
38.7126
0.425513
0.794357
1147.29
0.360853
0.698909
42.1342
0.279751
1319.65
144.485
0.818755
0.738587
-0.45063
0.929932
0.598901
-3.25382
69.3768
1241.5
4.75188
1185.17
381.421
837.595
1.62642
6.28509
113.385
1061.19
841.547
1.05839
4.66441
245.022
1216.22
0.876852
0.293671
11.2087
0.361436
142.431
4.7824
1014.4
995.883
15.8327
22.708
1273.14
0.389804
0.599843
42.1925
3.78881
0.412417
423.519
0.601163
732.334
0.410862
266.228
6.468
4.75676
144.169
1.62542
0.383823
133.552
855.757
1.06775
1324.76
144.024
0.381264
0.32742
40.2022
0.071365
0.288628
4.6296
42.9215
1006.59
164.426
1034.99
481.155
1812.63
1197.29
1.00577
0.482247
-0.0276695
1.06089
137.14
-0.0910616
1560.38
1409.95
42.283
920.532
0.626837
-0.876341
0.510077
146.151
0.414615
0.954508
34.139
-0.111613
0.436168
67.7469
0.415812
0.366511
-1.18026
0.0026541
168.23
0.23049
0.354647
0.790851
1855.5
761.006
-0.698568
162.593
55.6507
177.217
81.9377
-0.735669
-0.220256
0.387255
916.617
-2.23032
488.587
-0.49355
1591.86
246.129
1404.04
-0.179208
0.50484
0.392855
0.382557
0.838804
959.42
1.0328
0.61529
0.369873
-1.34542
1037.69
1714.75
81.4071
-0.294922
203.403
0.345797
423.163
0.400684
592.143
0.46047
968.564
0.421741
739.554
26.5026
1827.65
36.8963
563.2
776.723
0.179313
0.180979
-0.232176
169.913
0.525044
1460.03
1142.34
1044.88
-1.29219
1.71984
833.832
0.351759
0.228469
1008.53
-0.505004
361.856
2.84631
0.469977
23.3499
-0.814659
996.386
1242.03
-1.75468
1570.56
0.432678
-1.12921
1070.54
1.65674
-0.427349
1.14299
-0.422228
112.47
534.97
-0.26806
1767.93
0.184961
1470.21
6.25686
-0.580889
6.36455
0.333554
357.7
205.531
-0.619458
1.80035
122.233
0.467576
1868.53
4.80534
499.242
234.717
0.282956
397.502
503.578
0.450077
0.142836
1855.87
-2.22942
6.43336
-0.429513
0.457745
-0.456384
23.505
3.55487
-0.732286
4.7645
0.31993
37.4919
6.77375
1617.37
-1.72464
-3.1177
1302.88
-2.56622
6.19767
196.956
1004.1
18.4462
1309.6
-0.676069
1420.3
0.368365
1082.93
-0.980877
1657.59
6.32563
-0.882845
-1.13295
-0.476091
27.2284
76.7964
3.22575
6.60738
1322.96
-1.0755
3.4906
-0.226025
147.061
1321.01
-1.74545
745.174
83.319
-1.38653
1.07154
21.2276
-2.56348
-2.8588
0.399487
175.9
11.5286
1947.67
-0.112035
0.476356
10.7841
1101.76
2.67233
839.244
6.23574
154.391
-2.01673
0.275636
42.6317
1063.37
8.26443
0.135894
-1.24697
1173.24
0.422443
1577.72
470.559
1254.25
73.0588
0.0376569
-2.09378
1693.25
1063.77
-1.01166
6.24105
-1.18549
-0.386152
-1.37313
1.25652
0.199738
-0.888507
6.52111
0.331111
-0.679607
830.103
0.103825
1452.98
20.7737
-0.391873
0.326918
0.397984
6.05431
150.547
76.897
0.24187
204.784
6.16777
-0.832903
541.855
-0.260899
16.5414
-0.548715
14.4654
1980.3
1129.56
90.5311
1273.41
-2.06563
919.995
-1.02916
0.449616
58.9908
-1.39293
1.47026
6.00279
1.78667
0.0360077
1103.86
59.7021
-0.0886276
-1.31679
6.13627
3.71226
0.307243
5.82422
11.3869
6.18592
1622.49
-1.69542
-1.57747
-1.59111
-0.729223
0.249867
949.622
6.11085
0.384807
-0.00906038
31.8921
0.338971
0.403481
-1.72535
-2.0377
-1.08765
6.93664
-1.19927
49.3179
-1.62799
5.8244
66.9587
98.4458
-1.51381
29.4718
0.273081
16.9305
10.2021
6.10461
0.255376
-0.53614
0.103453
29.9547
80.9764
498.403
1047.1
-0.397593
-1.50569
1429.84
6.46699
1402.11
1.41456
-0.831228
1132.25
5.9974
-0.209153
0.375039
0.155422
74.4029
113.947
3.16481
6.42157
6.12863
15.0006
-1.04917
8.7364
6.00969
-1.0192
0.234258
-0.119056
48.4985
5.90923
0.416534
6.39967
1107.91
-1.6853
6.09243
-1.89668
5.98868
6.49547
1138.31
4.47855
-1.44838
11.0052
11.8199
9.33131
5.79489
483.036
6.26909
0.403209
0.00546934
0.771543
0.375227
111.135
-2.04593
0.0227724
0.64708
21.0744
-2.46112
5.96101
459.414
6.47837
6.41797
6.25401
1249.48
0.380176
8.20801
6.01927
41.813
51.7233
1360.84
6.72506
0.269534
0.229035
0.383568
5.79416
0.0656568
1.37554
1187.43
82.223
0.400808
48.1474
6.43914
1469.47
-0.309456
6.41627
5.6382
40.1727
-1.29023
83.2206
6.30725
6.27035
-0.496583
6.19247
0.150728
10.7064
582.85
5.95515
252.456
6.31186
6.27579
-0.216184
48.5237
0.357589
28.1001
6.07349
6.31224
-0.625797
-1.19404
370.292
5.88737
-2.59563
57.3911
0.318258
6.91914
6.153
13.0595
-1.43153
6.44341
0.272439
5.64911
22.4598
2.73695
822.938
6.31589
623.203
-0.083888
0.193052
0.161524
5.74966
-1.78125
0.43354
6.38838
41.312
29.2
6.42833
11.2025
0.882919
0.347019
6.11863
5.88084
6.32615
0.529096
1265.97
0.973057
-0.0198112
1.18091
43.0533
5.73831
1182.39
1.45229
-0.896923
5.3331
-1.04036
1.12599
187.155
5.89759
84.4109
0.87984
-1.60843
6.38404
51.2378
5.97475
0.347764
776.225
6.38005
6.49828
6.32681
0.414145
0.0731787
19.6283
37.4446
5.4881
34.6948
5.82135
5.7442
5.50386
0.254312
6.51381
0.205787
-1.07244
0.118345
-1.79614
-2.24075
6.31525
6.39975
-0.283066
-0.3703
45.3909
46.767
5.52759
-2.0351
50.7465
1228.59
-0.155284
6.33068
10.9518
-1.61463
0.295068
0.869599
5.90351
-0.533845
6.36531
0.359008
5.53299
5.11936
0.185126
6.08643
0.902459
1034.3
6.32045
0.993246
1.42249
165.235
-0.0908731
5.74492
5.8313
6.3215
3.11529
1238.13
48.3404
10.3076
31.0233
5.978
-0.650235
394.419
0.381163
42.8319
0.284472
6.36974
-2.27432
893.34
59.8092
6.32112
38.2321
0.00421253
2.72386
6.32033
1206.58
5.20727
46.9161
7.22297
45.1523
1.21921
45.573
6.0329
6.32637
0.544198
0.218176
6.38025
0.483231
1279.72
5.6263
6.35059
5.74991
0.0510284
4.70844
1.58968
-2.12166
1192.89
1150.64
-1.25845
0.339524
6.32056
1229.66
44.1454
0.365775
0.387833
-0.74672
0.121958
4.75711
6.32164
135.503
5.42148
6.33734
0.903698
-2.75637
0.751543
1241.81
1.8408
280.164
-0.196207
5.63753
20.7609
6.3289
1.50359
6.10568
0.317398
-2.64238
77.4221
-0.643271
0.384869
-1.74337
1.10332
-0.378394
1116.88
6.28304
5.89957
-0.303946
1.4302
5.11159
0.15637
-0.13711
6.08565
1.21259
5.80756
6.39688
10.6991
4.11538
0.389421
0.26525
-0.86858
1138.15
7.11497
0.917713
5.45438
0.378095
-0.0478658
1234.88
6.33159
5.71604
6.31566
30.1076
6.32019
4.37027
6.34695
6.01298
-1.20549
-0.503234
6.32042
0.0051584
-0.00223115
5.17497
47.8047
0.920369
6.29213
-1.93143
0.208457
5.61933
12.7091
4.68697
75.1896
0.339245
-0.168568
0.066938
1165.87
0.0666301
6.33023
1.08231
4.0036
1236.17
5.91003
1.08692
4.79607
21.8276
5.8229
-2.73323
0.760526
6.30608
0.289125
-1.99033
1.59626
5.96646
5.49943
6.31531
0.335183
17.2894
-0.598033
1.63029
0.349643
6.08022
1.57766
6.31551
4.23905
6.29076
6.23587
0.101468
5.73285
6.12743
-2.83134
5.32019
0.35305
0.234362
6.15619
967.232
1.3555
269.655
5.6369
14.5727
0.397953
1.70567
4.2228
1.41408
-0.027149
0.743811
-0.0260766
5.05945
0.158369
812.989
-0.455982
-0.197612
-0.148534
-0.0757144
-1.67553
6.0415
-1.31337
6.25339
0.400423
5.52094
6.31411
13.373
4.37653
-0.273011
6.29888
1.09791
-0.326916
1.99602
0.508949
-0.0348224
6.19658
6.31016
1.07278
6.29074
3.47034
5.35706
0.308685
0.343405
-1.45084
4.71412
1244.99
0.0281366
6.22537
0.184985
-1.19479
-2.94508
1.32212
5.1208
-0.853112
3.85402
5.84632
1.63245
33.937
-0.358505
5.74624
1.44807
1.04856
0.267963
5.5975
0.0606541
6.08992
6.32842
1.64611
4.80741
1.59433
6.26009
-1.39956
5.95867
4.02755
1292.41
5.64074
1.07083
1147.15
6.09518
75.1183
6.24043
-0.952713
1245.17
0.109026
5.52666
-1.32305
6.29546
1.4963
-0.405129
4.32101
5.80128
6.28931
0.221781
5.39488
0.32055
10.7111
-0.850463
59.8762
1.81177
1.45567
0.362913
265.021
-1.47758
1.50858
6.02662
5.22433
3.38152
0.825461
4.44558
1203.35
1181.72
5.76736
8.1182
1.37261
0.136908
4.99642
5.66506
0.283376
5.86194
-0.280921
-0.301947
6.18853
3.6105
6.26324
5.91793
-0.724619
5.55368
9.00048
-0.904044
-0.0455423
-0.0733353
1215.95
4.70795
6.2493
-0.886154
1.69333
-0.040813
0.0077928
1.70001
1.64702
5.42642
3.95831
-0.154703
-0.25914
-0.12102
687.153
0.238636
0.178373
1.65272
5.26674
1.15683
0.257237
1.72012
1261.71
5.99206
0.0360207
0.341306
6.29513
6.28739
5.05661
-0.147947
1228.75
4.09952
6.07799
-0.943693
-2.0044
0.766678
-0.815106
2.76492
0.0830125
1.93991
2.73681
1.59101
4.79123
-0.196594
6.20938
4.37757
0.284458
-0.69736
3.09974
-0.22368
1.07967
5.70522
1.80893
6.04873
5.59148
1068.07
6.18633
0.196934
-0.514174
3.59844
0.104438
6.26544
-0.758618
6.25445
4.48307
5.46544
1.8546
1.45559
6.31748
-0.37658
5.32264
3.75087
0.342025
1.74869
5.15201
381.065
6.11659
5.80895
0.127439
1.81796
-0.684986
1.99347
4.9417
-0.149537
0.345859
0.419299
4.04684
1.72367
-0.527814
0.307054
1.35882
6.22194
5.6218
4.68874
5.91998
0.375163
2.61673
6.37664
5.98735
2.22115
0.132623
2.82607
6.20464
0.564364
6.35225
6.34405
-1.02391
6.13507
4.16389
-0.0374535
5.49993
3.21858
2.16158
6.09244
-0.433333
-0.0164191
0.0130881
36.1611
1.62903
5.36241
0.2997
0.139522
-0.231173
0.956205
-0.477415
5.20035
5.73139
3.39161
0.0338677
0.0629671
6.25732
5.00278
-0.31133
6.33756
6.26796
6.04036
4.40209
0.278704
3.72384
4.76565
0.506557
1018.63
1.5664
0.0825159
-0.418842
-0.0053725
-0.260331
-0.0595883
6.15982
1.2167
1235.86
1.88701
2.005
6.33225
0.253459
3.84565
1086.91
6.23034
1.86182
0.124956
4.49399
-0.0754681
5.8289
5.95661
6.21657
-1.66684
0.144303
1.7863
1206.71
0.294979
0.489847
0.851597
6.01411
-0.346123
5.88417
2.08205
5.5623
6.29513
4.10333
2.52422
2.9437
0.219641
5.42941
2.68383
1190.98
66.7952
-0.0372549
1252.21
3.11955
5.27922
6.08261
1.12932
-0.271316
1.74424
5.68023
1.45017
5.10601
3.41541
1258.41
0.153962
0.0951397
4.90323
-0.0921518
6.18101
-0.252443
1021.77
1252.35
-0.094969
4.20431
0.0445545
990.992
988.737
2.3246
3.54697
4.66883
1239.62
-0.224712
6.16221
6.06009
6.35579
0.184296
0.0565531
3.80901
2.25034
0.0345881
0.0649769
0.209021
-0.0149295
5.78452
1.36759
5.59919
-0.0897537
0.368148
1.62737
6.22421
6.23643
-0.214845
4.40764
1.93617
5.47187
1275.45
2.04199
5.328
0.377012
5.16279
1.01356
1013.73
0.0714941
1223.92
1237.69
1.89707
0.71116
4.97002
6.32411
1233.46
3.91331
6.11383
5.96052
4.74681
5.71153
0.0259706
2.78812
0.0834936
6.19495
6.01446
0.0917039
3.1695
-0.151891
2.92687
5.89486
6.18009
6.23606
1.24856
0.269926
6.2656
0.631945
0.139838
2.6103
-0.0685569
1.8041
3.29683
0.523338
4.49535
0.920814
1251.75
1.56852
6.09618
0.161836
-0.00709219
2.26325
4.13273
0.36009
2.49314
3.53631
1251.33
-0.0989734
0.785657
0.0973586
1.16882
0.346074
5.8096
0.0967873
0.382438
0.376424
5.97731
3.64244
0.100783
0.358486
6.0579
0.501954
1.75325
6.40812
0.23383
1.03874
0.7146
4.22575
2.11449
0.476451
0.358195
0.0978916
5.99128
1.46103
-0.0772873
5.93338
2.06694
2.33887
6.12541
0.101048
6.14425
-0.0768767
0.271816
0.292827
1237.47
5.8636
0.630113
6.30512
1.96646
0.958765
1263.1
1.3908
3.86023
0.152125
0.024422
6.34252
0.265951
0.801257
0.100712
0.211052
1007.75
1028.14
6.19183
1251.49
0.722253
6.20446
2.99861
0.00190328
2.79821
1.26734
0.0423692
1.91982
1070.77
2.32307
0.493463
0.503829
-0.041861
0.139845
1257.42
0.231092
2.69904
6.03822
3.10391
5.67517
6.09159
5.55731
1.64129
6.23321
1246.53
1229.65
5.42301
0.0244839
1271.88
1.19465
3.30806
1179.79
5.27091
1.05027
5.09745
0.105998
999.363
4.89844
3.95332
388.911
0.970946
0.615257
1177.21
0.199301
4.67231
2.46313
6.1628
1.58324
2.55095
0.378426
3.40891
0.209369
1.81783
6.86219
2.13331
5.77778
0.2694
1217.49
1.47586
0.148497
2.25683
6.14811
1668.24
6.27761
1264.62
4.42181
0.0229076
0.104374
2.08431
3.60775
1.40929
6.07547
1.27851
1.7643
0.148174
0.146547
0.140951
6.11609
0.651204
0.106402
1.21
0.205937
0.165948
1.98337
5.85993
2.4322
2.87332
5.929
1.65879
0.033976
0.0688869
0.423421
0.16122
0.112059
4.15648
0.241119
2.63543
2.95958
5.98642
2.30908
3.69736
0.321474
1.93335
1145.56
2.50236
0.108399
2.71202
0.0418617
2.25226
0.222167
1249.26
0.0887429
1255.2
0.0581026
6.10357
1.6004
1265.24
0.875044
1.08174
0.197489
3.13017
1279.89
2.46639
1.48578
1262.84
6.20151
6.24581
6.14071
2.14392
0.165453
0.105453
1242.63
0.20106
0.208457
6.03297
1.83175
6.17508
2.30074
2.58589
1.42309
2.40828
3.21794
6.16299
0.136033
3.89156
2.09467
2.64997
0.180567
2.7806
1247.95
5.7113
0.233457
1210.95
5.59936
1.99493
5.47122
2.24967
0.199056
5.326
1.7778
1.31216
5.16068
2.44249
0.236356
6.0698
4.97107
4.75465
2.85157
6.52666
2.39242
0.21375
3.39096
2.54739
0.23815
1233.3
1020.84
1077.54
4.51253
2.99298
1.67125
2.15012
0.277033
2.60241
1276.09
0.441118
2.7125
2.29603
0.359836
6.09749
6.13587
1238.44
4.25174
0.246594
1.94433
6.21361
0.227698
2.56685
2.42752
0.264487
2.77153
5.80879
5.88532
1.61506
2.10152
5.94995
0.182051
3.64501
2.51947
3.47283
1281.41
0.651536
1.0232
1.51475
6.12234
0.175664
0.167578
2.38268
2.24866
0.12348
0.288062
2.88819
0.134598
2.66202
6.00318
0.207481
0.298982
3.06666
6.12225
0.230929
3.98564
0.144652
1241.14
1190.37
1233.06
0.27544
2.71184
2.54252
2.29366
1.2433
2.15416
1283.42
6.17332
0.128235
2.50115
0.234933
0.25859
2.80922
0.239741
2.41885
0.252618
2.94967
0.042107
0.131141
0.135668
6.0458
1.84285
0.263862
2.62533
0.183383
3.2139
0.267011
2.00337
0.27902
1257.22
0.21633
3.73221
6.07827
2.66782
0.268274
6.18408
0.290827
2.38035
2.25157
0.748858
2.75057
1.44741
1.69921
0.245634
0.190424
0.392231
0.325758
2.86047
0.343794
0.117457
2.52767
1217.78
2.63682
0.276283
2.60038
0.208312
3.07269
0.271739
6.11547
6.10353
0.300015
1253.32
1.79147
0.335458
0.330354
0.302028
2.4935
2.10929
0.252715
0.342545
0.312756
2.79325
0.312699
2.70784
0.351459
1267.09
1277.96
2.6171
0.262288
0.362635
6.15021
1698.05
2.30844
1.63697
0.359129
0.328496
2.4294
0.344376
3.43021
3.50696
2.58828
2.67807
2.74371
2.96225
0.247824
0.308023
3.28484
0.388698
2.17341
2.5341
2.68505
6.13952
2.70874
0.397033
2.87735
1248.64
1237.26
0.31835
2.66226
0.393325
0.281665
0.266382
0.363831
0.369099
1.95568
0.404497
3.01076
0.422056
0.378871
2.61988
0.371229
2.81354
0.163358
3.132
2.38937
0.412686
2.26353
1.86902
1.81176
0.42633
0.195869
0.402016
0.447269
2.76705
0.32232
2.49977
2.68418
2.73505
3.10548
2.99033
3.03306
0.374674
6.15996
0.414402
2.5922
2.71414
0.432511
0.464525
0.432416
0.339123
0.321462
0.363062
2.0266
0.493647
2.12434
2.6641
0.470325
0.447095
0.447308
2.9167
0.483899
2.71355
2.72506
2.73093
0.473205
0.492883
2.84519
0.367959
0.455567
2.79228
0.522617
0.524449
2.75507
0.156761
0.487281
0.494316
0.504253
0.504954
0.492118
1250.49
1257.08
0.516245
1257.49
0.514329
1265.21
2.86004
2.83453
1.97364
2.90135
2.9348
3.15878
2.78642
2.80515
3.31579
3.25091
0.435434
0.447331
0.29903
0.473649
0.46397
0.415745
0.401657
0.507837
2.7337
2.73807
2.73709
2.74488
2.76737
2.75449
0.379216
0.506775
0.367245
0.47052
0.408652
0.442834
6.14967
6.14038
1242.82
782.266
1249.72
6.12975
6.13177
6.47553
6.28148
6.12378
6.13408
1291.49
0.390041
1239.12
1257.02
6.12696
1219.98
6.31462
1055.49
1240.06
7.22817
1095.04
7.59203
1735.31
1241.37
6.42097
6.41494
943.125
987.95
351.618
976.193
831.481
1006.94
1220.55
1239.74
1220.96
1031.34
1083.65
1062.61
1176.48
1713.16
6.30813
903.172
7.63655
7.35374
1224.04
1238.22
896.451
275.163
0.388542
365.887
1385.18
1429.87
1027.47
996.426
984.053
841.207
907.486
958.899
998.751
1499.96
1473.54
1224.94
1746.73
1001.85
0.391273
829.143
1056.32
7.21732
957.192
404.031
997.328
1294.68
594.075
457.899
6.50458
1094.11
867.728
429.358
22.9252
881.687
0.0215695
10.7008
495.949
6.41446
637.499
-0.192653
845.649
281.512
1043.45
6.24258
27.7687
-0.375636
760.748
416.363
1492.73
11.6504
0.077264
859.234
-0.0573463
8.6642
846.14
6.9422
-0.0878063
862.524
6.47403
879.716
663.187
465.033
377.91
6.55045
1397.19
1317.92
-0.232434
)
;

boundaryField
{
    patch0
    {
        type            fixedFluxPressure;
        gradient        uniform 0;
        value           nonuniform List<scalar> 
4010
(
1.91151
1.91151
0.982595
0.982595
1.09195
1.09195
3.03382
3.03382
1.00657
1.00657
4.58635
4.58635
3.15815
3.15815
0.947083
0.947083
0.056204
0.056204
0.874337
0.874337
0.38246
0.38246
0.397936
0.397936
839.74
839.74
-0.133121
-0.133121
6.02805
6.02805
6.60239
6.60239
1081.02
1081.02
-0.147363
-0.147363
23.1221
23.1221
-0.285059
-0.285059
1106.94
1106.94
509.033
509.033
8.5131
8.5131
-0.278065
-0.278065
126.5
126.5
385.364
385.364
71.0961
71.0961
0.884327
0.884327
0.869376
0.869376
0.493164
0.493164
37.0129
37.0129
1029.33
1029.33
406.5
406.5
609.22
609.22
0.871724
0.871724
6.81022
6.81022
1400.55
1400.55
0.874314
0.874314
0.39701
0.39701
531.344
531.344
1334.17
1334.17
1071.71
1071.71
1353.7
1353.7
6.63231
6.63231
0.142567
0.142567
118.68
118.68
1.04278
1.04278
0.44307
0.44307
928.413
928.413
949.704
949.704
6.19651
6.19651
1222.3
1222.3
24.1453
24.1453
6.1767
6.1767
803.337
803.337
0.790196
0.790196
63.8581
63.8581
0.697838
0.697838
0.654721
0.654721
103.638
103.638
6.42845
6.42845
1.36875
1.36875
6.30413
6.30413
0.707326
0.707326
6.28789
6.28789
0.489606
0.489606
-2.41808
-2.41808
7.28545
7.28545
1.04039
1.04039
6.17537
6.17537
1155.24
1155.24
-3.073
-3.073
0.392177
0.392177
0.42142
0.42142
0.414585
0.414585
39.8655
39.8655
0.422349
0.422349
0.426745
0.426745
0.398315
0.398315
6.18883
6.18883
0.200483
0.200483
77.6155
77.6155
0.0693809
0.0693809
1180.13
1180.13
115.55
115.55
6.71994
6.71994
0.669137
0.669137
-1.63108
-1.63108
866.732
866.732
1120.65
1120.65
-1.52074
-1.52074
81.6657
81.6657
668.403
668.403
471.091
471.091
1320.18
1320.18
6.32915
6.32915
0.428538
0.428538
0.165063
0.165063
85.1393
85.1393
40.7289
40.7289
0.824843
0.824843
1281.77
1281.77
7.32473
7.32473
292.554
292.554
494.069
494.069
0.410006
0.410006
0.656095
0.656095
491.62
491.62
38.6924
38.6924
203.801
203.801
0.388978
0.388978
0.744158
0.744158
0.972618
0.972618
0.202846
0.202846
0.39091
0.39091
1110.36
1110.36
1.6113
1.6113
7.48796
7.48796
6.34439
6.34439
0.402523
0.402523
842.197
842.197
1045.87
1045.87
975.081
975.081
1023.55
1023.55
-2.90129
-2.90129
250.99
250.99
38.7126
38.7126
0.425513
0.425513
0.794357
0.794357
1147.29
1147.29
0.360853
0.360853
0.698909
0.698909
42.1342
42.1342
0.279751
0.279751
1319.65
1319.65
144.485
144.485
0.818755
0.818755
0.738587
0.738587
-0.45063
-0.45063
0.929932
0.929932
0.598901
0.598901
-3.25382
-3.25382
69.3768
69.3768
69.3768
1241.5
1241.5
1241.5
4.75188
4.75188
1185.17
1185.17
381.421
381.421
837.595
837.595
1.62642
1.62642
6.28509
6.28509
113.385
113.385
1061.19
1061.19
1061.19
841.547
841.547
1.05839
1.05839
4.66441
4.66441
245.022
245.022
1216.22
1216.22
0.876852
0.876852
0.293671
0.293671
11.2087
11.2087
0.361436
0.361436
142.431
142.431
4.7824
4.7824
1014.4
1014.4
995.883
995.883
15.8327
15.8327
22.708
22.708
1273.14
1273.14
0.389804
0.389804
0.599843
0.599843
42.1925
42.1925
3.78881
3.78881
0.412417
0.412417
423.519
423.519
0.601163
0.601163
732.334
732.334
0.410862
0.410862
266.228
266.228
6.468
6.468
4.75676
4.75676
144.169
144.169
1.62542
1.62542
0.383823
0.383823
133.552
133.552
855.757
855.757
1.06775
1.06775
1324.76
1324.76
144.024
144.024
0.381264
0.381264
0.32742
0.32742
40.2022
40.2022
0.071365
0.071365
0.288628
0.288628
4.6296
4.6296
42.9215
42.9215
1006.59
1006.59
1006.59
164.426
164.426
1034.99
1034.99
481.155
481.155
1812.63
1812.63
1197.29
1197.29
1.00577
1.00577
0.482247
0.482247
-0.0276695
-0.0276695
1.06089
1.06089
137.14
137.14
-0.0910616
-0.0910616
1560.38
1560.38
1409.95
1409.95
42.283
42.283
42.283
920.532
920.532
0.626837
0.626837
-0.876341
-0.876341
0.510077
0.510077
146.151
146.151
0.414615
0.414615
0.954508
0.954508
34.139
34.139
-0.111613
-0.111613
0.436168
0.436168
67.7469
67.7469
0.415812
0.415812
0.366511
0.366511
-1.18026
-1.18026
0.0026541
0.0026541
168.23
168.23
0.23049
0.23049
0.354647
0.354647
0.790851
0.790851
1855.5
1855.5
761.006
761.006
-0.698568
-0.698568
162.593
162.593
55.6507
55.6507
177.217
177.217
81.9377
81.9377
81.9377
-0.735669
-0.735669
-0.220256
-0.220256
0.387255
0.387255
916.617
916.617
916.617
-2.23032
-2.23032
488.587
488.587
-0.49355
-0.49355
1591.86
1591.86
246.129
246.129
1404.04
1404.04
-0.179208
-0.179208
0.50484
0.50484
0.392855
0.392855
0.382557
0.382557
0.838804
0.838804
959.42
959.42
1.0328
1.0328
0.61529
0.61529
0.369873
0.369873
-1.34542
-1.34542
1037.69
1037.69
1714.75
1714.75
81.4071
81.4071
-0.294922
-0.294922
203.403
203.403
0.345797
0.345797
423.163
423.163
0.400684
0.400684
592.143
592.143
0.46047
0.46047
968.564
968.564
0.421741
0.421741
739.554
739.554
26.5026
26.5026
1827.65
1827.65
36.8963
36.8963
563.2
563.2
776.723
776.723
0.179313
0.179313
0.180979
0.180979
-0.232176
-0.232176
169.913
169.913
0.525044
0.525044
1460.03
1460.03
1142.34
1142.34
1044.88
1044.88
1044.88
-1.29219
-1.29219
1.71984
1.71984
833.832
833.832
0.351759
0.351759
0.228469
0.228469
1008.53
1008.53
-0.505004
-0.505004
361.856
361.856
2.84631
2.84631
0.469977
0.469977
23.3499
23.3499
-0.814659
-0.814659
996.386
996.386
1242.03
1242.03
-1.75468
-1.75468
1570.56
1570.56
0.432678
0.432678
-1.12921
-1.12921
1070.54
1070.54
1070.54
1.65674
1.65674
-0.427349
-0.427349
1.14299
1.14299
-0.422228
-0.422228
112.47
112.47
534.97
534.97
-0.26806
-0.26806
1767.93
1767.93
0.184961
0.184961
1470.21
1470.21
6.25686
6.25686
-0.580889
-0.580889
6.36455
6.36455
0.333554
0.333554
357.7
357.7
205.531
205.531
-0.619458
-0.619458
1.80035
1.80035
122.233
122.233
0.467576
0.467576
1868.53
1868.53
4.80534
4.80534
499.242
499.242
234.717
234.717
0.282956
0.282956
397.502
397.502
503.578
503.578
0.450077
0.450077
0.142836
0.142836
1855.87
1855.87
-2.22942
-2.22942
6.43336
6.43336
-0.429513
-0.429513
0.457745
0.457745
-0.456384
-0.456384
23.505
23.505
3.55487
3.55487
-0.732286
-0.732286
4.7645
4.7645
0.31993
0.31993
37.4919
37.4919
6.77375
6.77375
1617.37
1617.37
-1.72464
-1.72464
-3.1177
-3.1177
1302.88
1302.88
-2.56622
-2.56622
6.19767
6.19767
196.956
196.956
1004.1
1004.1
18.4462
18.4462
1309.6
1309.6
-0.676069
-0.676069
1420.3
1420.3
0.368365
0.368365
1082.93
1082.93
-0.980877
-0.980877
1657.59
1657.59
6.32563
6.32563
-0.882845
-0.882845
-1.13295
-1.13295
-0.476091
-0.476091
27.2284
27.2284
76.7964
76.7964
3.22575
3.22575
6.60738
6.60738
1322.96
1322.96
-1.0755
-1.0755
3.4906
3.4906
-0.226025
-0.226025
147.061
147.061
1321.01
1321.01
-1.74545
-1.74545
745.174
745.174
83.319
83.319
-1.38653
-1.38653
1.07154
1.07154
21.2276
21.2276
-2.56348
-2.56348
-2.8588
-2.8588
0.399487
0.399487
175.9
175.9
11.5286
11.5286
1947.67
1947.67
-0.112035
-0.112035
0.476356
0.476356
10.7841
10.7841
1101.76
1101.76
2.67233
2.67233
839.244
839.244
6.23574
6.23574
154.391
154.391
-2.01673
-2.01673
0.275636
0.275636
42.6317
42.6317
42.6317
1063.37
1063.37
8.26443
8.26443
0.135894
0.135894
-1.24697
-1.24697
1173.24
1173.24
0.422443
0.422443
1577.72
1577.72
470.559
470.559
1254.25
1254.25
1254.25
73.0588
73.0588
0.0376569
0.0376569
-2.09378
-2.09378
1693.25
1693.25
1063.77
1063.77
-1.01166
-1.01166
6.24105
6.24105
-1.18549
-1.18549
-0.386152
-0.386152
-1.37313
-1.37313
1.25652
1.25652
0.199738
0.199738
-0.888507
-0.888507
6.52111
6.52111
0.331111
0.331111
-0.679607
-0.679607
830.103
830.103
0.103825
0.103825
1452.98
1452.98
20.7737
20.7737
-0.391873
-0.391873
0.326918
0.326918
0.397984
0.397984
6.05431
6.05431
150.547
150.547
76.897
76.897
0.24187
0.24187
204.784
204.784
6.16777
6.16777
-0.832903
-0.832903
541.855
541.855
-0.260899
-0.260899
16.5414
16.5414
-0.548715
-0.548715
14.4654
14.4654
1980.3
1980.3
1129.56
1129.56
90.5311
90.5311
1273.41
1273.41
-2.06563
-2.06563
919.995
919.995
919.995
-1.02916
-1.02916
0.449616
0.449616
58.9908
58.9908
-1.39293
-1.39293
1.47026
1.47026
6.00279
6.00279
1.78667
1.78667
0.0360077
0.0360077
1103.86
1103.86
59.7021
59.7021
-0.0886276
-0.0886276
-1.31679
-1.31679
6.13627
6.13627
3.71226
3.71226
0.307243
0.307243
5.82422
5.82422
11.3869
11.3869
6.18592
6.18592
1622.49
1622.49
-1.69542
-1.69542
-1.57747
-1.57747
-1.59111
-1.59111
-0.729223
-0.729223
0.249867
0.249867
949.622
949.622
6.11085
6.11085
0.384807
0.384807
-0.00906038
-0.00906038
31.8921
31.8921
0.338971
0.338971
0.403481
0.403481
-1.72535
-1.72535
-2.0377
-2.0377
-1.08765
-1.08765
6.93664
6.93664
-1.19927
-1.19927
49.3179
49.3179
-1.62799
-1.62799
5.8244
5.8244
66.9587
66.9587
98.4458
98.4458
-1.51381
-1.51381
29.4718
29.4718
0.273081
0.273081
16.9305
16.9305
10.2021
10.2021
6.10461
6.10461
0.255376
0.255376
-0.53614
-0.53614
0.103453
0.103453
29.9547
29.9547
80.9764
80.9764
498.403
498.403
1047.1
1047.1
-0.397593
-0.397593
-1.50569
-1.50569
1429.84
1429.84
6.46699
6.46699
1402.11
1402.11
1.41456
1.41456
-0.831228
-0.831228
1132.25
1132.25
5.9974
5.9974
-0.209153
-0.209153
0.375039
0.375039
0.155422
0.155422
74.4029
74.4029
113.947
113.947
3.16481
3.16481
6.42157
6.42157
6.12863
6.12863
15.0006
15.0006
-1.04917
-1.04917
8.7364
8.7364
6.00969
6.00969
-1.0192
-1.0192
0.234258
0.234258
-0.119056
-0.119056
48.4985
48.4985
5.90923
5.90923
0.416534
0.416534
6.39967
6.39967
1107.91
1107.91
-1.6853
-1.6853
6.09243
6.09243
-1.89668
-1.89668
5.98868
5.98868
6.49547
6.49547
1138.31
1138.31
4.47855
4.47855
-1.44838
-1.44838
11.0052
11.0052
11.8199
11.8199
9.33131
9.33131
5.79489
5.79489
483.036
483.036
6.26909
6.26909
0.403209
0.403209
0.00546934
0.00546934
0.771543
0.771543
0.375227
0.375227
111.135
111.135
-2.04593
-2.04593
0.0227724
0.0227724
0.64708
0.64708
21.0744
21.0744
-2.46112
-2.46112
5.96101
5.96101
459.414
459.414
6.47837
6.47837
6.41797
6.41797
6.25401
6.25401
1249.48
1249.48
0.380176
0.380176
8.20801
8.20801
6.01927
6.01927
41.813
41.813
51.7233
51.7233
1360.84
1360.84
6.72506
6.72506
0.269534
0.269534
0.229035
0.229035
0.383568
0.383568
5.79416
5.79416
0.0656568
0.0656568
1.37554
1.37554
1187.43
1187.43
82.223
82.223
0.400808
0.400808
48.1474
48.1474
6.43914
6.43914
1469.47
1469.47
-0.309456
-0.309456
6.41627
6.41627
5.6382
5.6382
40.1727
40.1727
-1.29023
-1.29023
83.2206
83.2206
6.30725
6.30725
6.27035
6.27035
-0.496583
-0.496583
6.19247
6.19247
0.150728
0.150728
10.7064
10.7064
582.85
582.85
5.95515
5.95515
252.456
252.456
6.31186
6.31186
6.27579
6.27579
-0.216184
-0.216184
48.5237
48.5237
0.357589
0.357589
28.1001
28.1001
6.07349
6.07349
6.31224
6.31224
-0.625797
-0.625797
-1.19404
-1.19404
370.292
370.292
5.88737
5.88737
-2.59563
-2.59563
57.3911
57.3911
0.318258
0.318258
6.91914
6.91914
6.153
6.153
13.0595
13.0595
-1.43153
-1.43153
6.44341
6.44341
0.272439
0.272439
5.64911
5.64911
22.4598
22.4598
2.73695
2.73695
822.938
822.938
6.31589
6.31589
623.203
623.203
-0.083888
-0.083888
0.193052
0.193052
0.161524
0.161524
5.74966
5.74966
-1.78125
-1.78125
0.43354
0.43354
6.38838
6.38838
41.312
41.312
29.2
29.2
6.42833
6.42833
11.2025
11.2025
0.882919
0.882919
0.347019
0.347019
6.11863
6.11863
5.88084
5.88084
6.32615
6.32615
0.529096
0.529096
1265.97
1265.97
0.973057
0.973057
-0.0198112
-0.0198112
1.18091
1.18091
43.0533
43.0533
5.73831
5.73831
1182.39
1182.39
1.45229
1.45229
-0.896923
-0.896923
5.3331
5.3331
-1.04036
-1.04036
1.12599
1.12599
187.155
187.155
5.89759
5.89759
84.4109
84.4109
0.87984
0.87984
-1.60843
-1.60843
6.38404
6.38404
51.2378
51.2378
5.97475
5.97475
0.347764
0.347764
776.225
776.225
6.38005
6.38005
6.49828
6.49828
6.32681
6.32681
0.414145
0.414145
0.0731787
0.0731787
19.6283
19.6283
37.4446
37.4446
5.4881
5.4881
34.6948
34.6948
5.82135
5.82135
5.7442
5.7442
5.50386
5.50386
0.254312
0.254312
6.51381
6.51381
0.205787
0.205787
-1.07244
-1.07244
0.118345
0.118345
-1.79614
-1.79614
-2.24075
-2.24075
6.31525
6.31525
6.39975
6.39975
-0.283066
-0.283066
-0.3703
-0.3703
45.3909
45.3909
46.767
46.767
5.52759
5.52759
-2.0351
-2.0351
50.7465
50.7465
1228.59
1228.59
-0.155284
-0.155284
6.33068
6.33068
10.9518
10.9518
-1.61463
-1.61463
0.295068
0.295068
0.869599
0.869599
5.90351
5.90351
-0.533845
-0.533845
6.36531
6.36531
0.359008
0.359008
5.53299
5.53299
5.11936
5.11936
0.185126
0.185126
6.08643
6.08643
0.902459
0.902459
1034.3
1034.3
6.32045
6.32045
0.993246
0.993246
1.42249
1.42249
165.235
165.235
-0.0908731
-0.0908731
5.74492
5.74492
5.8313
5.8313
6.3215
6.3215
3.11529
3.11529
1238.13
1238.13
48.3404
48.3404
10.3076
10.3076
31.0233
31.0233
5.978
5.978
-0.650235
-0.650235
394.419
394.419
0.381163
0.381163
42.8319
42.8319
0.284472
0.284472
6.36974
6.36974
-2.27432
-2.27432
893.34
893.34
59.8092
59.8092
59.8092
6.32112
6.32112
38.2321
38.2321
0.00421253
0.00421253
2.72386
2.72386
6.32033
6.32033
1206.58
1206.58
5.20727
5.20727
46.9161
46.9161
7.22297
7.22297
45.1523
45.1523
1.21921
1.21921
45.573
45.573
6.0329
6.0329
6.32637
6.32637
0.544198
0.544198
0.218176
0.218176
6.38025
6.38025
0.483231
0.483231
1279.72
1279.72
5.6263
5.6263
6.35059
6.35059
5.74991
5.74991
0.0510284
0.0510284
4.70844
4.70844
1.58968
1.58968
-2.12166
-2.12166
1192.89
1192.89
1150.64
1150.64
-1.25845
-1.25845
0.339524
0.339524
6.32056
6.32056
1229.66
1229.66
44.1454
44.1454
0.365775
0.365775
0.387833
0.387833
-0.74672
-0.74672
0.121958
0.121958
4.75711
4.75711
6.32164
6.32164
135.503
135.503
5.42148
5.42148
6.33734
6.33734
0.903698
0.903698
-2.75637
-2.75637
0.751543
0.751543
1241.81
1241.81
1.8408
1.8408
280.164