/*--------------------------------*- C++ -*----------------------------------*\
  =========                 |
  \\      /  F ield         | OpenFOAM: The Open Source CFD Toolbox
   \\    /   O peration     | Website:  https://openfoam.org
    \\  /    A nd           | Version:  8
     \\/     M anipulation  |
\*---------------------------------------------------------------------------*/
FoamFile
{
    version     2.0;
    format      ascii;
    class       surfaceScalarField;
    location    "0.4";
    object      phi;
}
// * * * * * * * * * * * * * * * * * * * * * * * * * * * * * * * * * * * * * //

dimensions      [0 3 -1 0 0 0 0];

internalField   nonuniform List<scalar> 
2805
(
0.00075777
-0.000602573
-0.000155198
0.000625372
0.000132398
-0.000638067
4.00959e-05
0.000597971
-0.000452687
-0.000185381
0.000582864
4.25077e-05
-0.00121425
0.000761564
-0.000600649
-0.000613601
-0.0016049
0.00100425
-0.000576712
-0.00102819
-4.80928e-05
8.81895e-05
-0.00205637
0.00147965
-0.000201998
-0.00185437
0.00222254
-0.00139037
-0.000832169
-0.00204634
0.00184434
-0.000374109
0.00152921
-0.0011551
0.000657649
-0.00103176
0.00157449
0.000648044
-0.000436782
-0.00160955
-0.000539136
-6.34375e-05
-0.00206661
0.00162983
0.00150718
0.000331345
-0.00183852
0.000300266
0.000500331
-0.000800597
-0.000236243
0.00214211
-0.00190586
-0.000713081
-0.00135353
-0.000471864
0.000772131
-0.00104617
0.000702527
0.000343647
-0.000317476
-0.000728697
0.000187346
0.000229107
-0.000416453
0.000214525
2.09997e-05
-0.000235525
-0.000411915
-0.000207011
0.000618926
-0.00115207
0.00091583
-0.000810939
0.000339075
-5.15109e-05
0.000194336
-0.000142825
0.00184804
-0.000273546
0.000222488
-3.51418e-05
0.00101401
0.0011281
-0.00067848
-0.000132459
-0.00021113
0.000425656
8.16271e-05
-0.000493542
0.000695965
5.41312e-05
-0.000732611
0.00160363
-9.64483e-05
0.000756658
-8.54698e-05
-0.00182039
-0.000126591
0.000798203
-0.000671612
-9.37896e-05
0.000121235
-2.74454e-05
0.00016664
2.81212e-05
-0.000194762
0.000328112
-7.31964e-05
-0.000254916
0.000731961
-0.00180985
0.00107789
-0.00141056
0.00109809
0.000312467
0.000758444
-3.36558e-05
-0.000724788
0.000213259
-0.000451681
0.000952012
-0.000355279
0.00111372
-0.000127605
-1.0428e-05
0.000138033
0.000174395
-0.000372495
0.000201521
-0.000329901
0.000531422
-0.00165954
0.00179846
-0.000138918
-0.000955212
0.000869742
0.00106824
-0.00041059
0.000217121
-0.00117233
-0.000516821
0.000352719
0.000164102
0.000455926
-0.000811205
-9.61645e-05
2.29681e-05
-0.00371468
2.49224e-05
0.00368976
0.00229332
-0.00127931
-7.279e-05
-0.000208727
0.000175071
7.93281e-05
-0.000166537
8.72086e-05
0.00044222
0.00062602
-0.000435193
-0.000665995
0.000458985
-0.000227677
-0.000438318
-6.67862e-05
7.91552e-05
-1.23691e-05
0.000232097
-0.000328261
-0.000659046
0.000431368
-0.000589801
0.000334885
8.39421e-06
0.00128218
-0.00158586
0.000303674
0.000704656
-0.00102213
-0.000808965
0.00053045
0.000278516
0.00068781
-0.000356465
-0.000206708
0.00119317
0.00110015
-0.000100793
0.00244061
-0.0009114
-0.000678596
0.000117542
-3.82134e-05
-0.000185859
-0.00352882
-0.000232617
0.000937274
-6.37043e-06
0.000208729
-0.000352698
0.000143969
-5.82337e-05
0.000175775
-0.000271213
0.000727139
5.80265e-05
0.000174071
0.00146401
-0.000181834
-0.00219059
0.000531053
0.000188021
-0.000254807
-0.000874642
0.00103959
-0.000164949
0.000629577
-0.00123784
-0.000952755
0.000603404
-0.000836022
0.000435785
-0.000227056
-0.00101569
0.000533998
0.000481691
-0.000906356
-0.00028707
0.00119343
0.000277537
0.000158248
0.000854695
0.000943764
-0.000359069
-0.000330233
0.00038826
0.000325627
-0.000398417
0.000371734
0.000413718
-0.000764058
0.00035034
-0.000294441
-0.00029536
0.000119598
-0.000476063
-0.000276671
-3.67492e-05
-0.000995009
0.00101872
-0.00107513
5.64105e-05
-0.000622702
0.000288078
-0.000494786
-0.00240937
0.00230493
0.000104437
-0.000740433
8.13845e-05
-0.00246277
0.00248769
0.000186469
0.000414178
-0.000600647
9.07357e-05
-1.15807e-05
0.000195391
-0.000854437
-3.34414e-05
-0.000730019
0.00194097
-0.00121095
0.00014487
-0.000475103
0.000133235
-0.000153239
0.000158963
-5.72388e-06
-0.000395247
0.000842836
0.000421998
-0.000649054
0.000685488
-0.000259832
0.0012303
-0.00194338
0.000336592
-7.78251e-05
-0.00202055
0.00102251
-0.00102251
-4.22788e-05
4.22788e-05
-0.00125236
0.000975689
-0.00120246
0.000472441
0.000464006
2.14845e-05
0.00107618
-0.000221481
0.00022324
0.00079548
0.000434251
9.61983e-05
-0.00240937
-3.74224e-05
0.000128158
-0.00113328
0.00126651
-0.000490797
-6.62149e-05
0.000480393
0.00206755
0.000237378
-0.000424781
-0.000511615
0.000656486
-0.000369273
0.00042046
-5.11862e-05
-0.00038763
-0.000376428
-0.000165608
-0.000157587
-0.0024516
4.22311e-05
-0.000413373
0.000485708
-7.2335e-05
-0.000178649
0.000697708
-0.000763923
0.000693464
0.00137409
-0.000222619
-0.000400084
-0.000682495
0.000193018
1.31844e-06
-0.00150148
0.00101069
-0.000571841
-0.000443848
0.00113446
9.65698e-05
0.000220179
-0.000216543
-3.63528e-06
0.000231296
9.58442e-05
-8.63553e-06
0.000181742
0.000946353
-0.00129331
0.00113572
0.000657692
-4.71304e-05
-0.000610562
-0.00207846
0.00204171
-0.000848029
0.00041732
0.000430708
6.51809e-05
0.000632527
-0.000542763
-0.00126709
0.000284055
-0.000255933
0.000188816
-0.000226239
-0.000193006
0.00101252
-0.000819513
-0.000697722
-0.000876305
0.000499877
0.000337902
0.000126104
-0.000497231
0.000199981
-0.000711596
-0.000282623
0.00119505
-0.00112987
-0.0024516
-0.000331685
0.00135208
-0.0010204
-4.08182e-05
0.000260997
0.000378423
-0.000419241
0.000389418
-0.000128421
-0.000185104
0.000754913
-0.000933562
0.00140498
-0.00190221
0.000464686
-0.00159741
0.00131479
0.00032665
-0.000137834
0.000149643
0.000158963
-0.0024944
4.28007e-05
0.000510932
0.000648601
-0.00222295
0.00157435
0.000325525
0.000869521
0.000680834
0.000729389
0.000142988
0.000933189
0.000121358
-0.00019243
-0.000585775
-0.000268662
0.000601751
-9.07576e-05
-9.00987e-06
-0.00191124
0.00255984
-0.000422559
0.000416302
0.000935778
-0.000777046
0.000977027
4.9526e-05
-0.000714798
0.000665272
0.00185745
-0.00153192
0.000401592
-1.2174e-05
-1.61519e-05
5.72398e-06
0.0031433
-0.00181565
-0.00132765
0.000331293
0.00163993
-0.00122363
0.00042046
-0.000128221
-0.00209473
-0.00201876
0.00182633
0.00127223
-0.00128124
-0.0024944
-0.000129641
-0.00194882
0.00038069
8.39962e-05
-0.00164411
0.00151589
0.000304873
2.17772e-05
0.000747017
5.11862e-05
0.000325418
0.00189543
-0.00231799
0.000270641
-0.00041666
-0.000522315
0.000275489
-0.00166473
-0.00082967
0.000674135
0.00118331
-0.00042263
-0.000189095
-0.000508627
-0.000148165
-0.00176308
-0.000369579
0.000713226
-0.000448418
0.000307647
0.000140771
0.00018251
-0.000123326
0.000815038
0.000142369
0.00088604
0.000248418
0.000312729
-0.000270367
0.000609442
-3.3952e-05
-0.000404366
0.00115776
-0.00125421
0.000186496
-0.000630343
-2.75751e-05
0.000827745
0.000587743
-0.000186151
2.08786e-05
-2.61269e-05
0.000242753
0.000320585
-0.000563338
0.00163918
0.00150412
-0.000648138
-0.000937718
-0.000473655
0.000406144
0.00123379
0.00084388
0.000319119
0.000102974
-0.00166473
-0.0020015
0.00231568
-0.00164154
-1.10691e-05
-0.000483717
0.000108208
-0.000885254
-0.00194097
0.00027624
-0.00251492
0.00239159
-6.77279e-05
0.00149088
-0.00134851
6.67711e-05
-0.000560313
0.00182298
-0.00141684
-0.000764517
-0.00133022
-0.000163596
1.50442e-05
0.000470664
-0.00231631
0.00216814
0.000766485
-0.000461612
-0.000399278
-0.0025276
-0.000437364
0.000261198
-0.00190531
-6.5919e-05
0.000208906
0.00233853
-0.00281218
0.000238833
0.000510996
-0.000749829
0.00213838
-0.000980616
-0.00120134
0.00146254
0.0005504
-0.00076237
0.000187584
0.000634912
-0.000411671
0.000983948
0.00133173
0.000500085
0.000904962
-0.00140505
-0.000900691
0.00130621
0.000204476
-0.000176391
-4.10434e-05
0.001074
3.28193e-05
0.00059718
-9.4371e-06
0.000698358
0.000338528
-0.000323484
0.000221615
-0.000950312
0.000218115
-0.000878447
0.000660332
0.000613106
0.000559417
8.52596e-05
-0.00145625
0.00156446
0.000403115
0.00108404
0.00260572
0.00147988
-0.000979792
-0.00118235
0.000261195
-0.000529857
0.000645133
0.00117785
0.00150026
0.00146236
-0.0015034
0.00302782
-0.00204387
-0.00065015
-0.000496683
0.000371218
0.000400863
0.000371267
0.000511345
0.00025514
-0.000901459
-0.00141485
0.000167197
0.000458823
0.00225966
0.000228029
0.000255907
0.000379004
0.00103306
-0.000276405
-0.000516658
0.000444323
0.000945762
-0.00227598
0.00103042
0.000257082
-0.000779397
-0.000765797
0.00164813
-0.00088233
-0.0029547
0.00277831
0.000373638
0.000176762
-0.000710387
0.000439174
0.0022814
-0.00163627
-0.00171564
-0.000811959
-0.000959545
0.000442686
0.00106143
0.000762695
0.000664637
0.00130583
0.000659317
-6.21368e-05
0.00138776
0.00164007
-0.000179182
0.000477339
-0.00167868
0.000254484
0.000426959
-0.00302536
0.00289572
0.00109869
-0.000161413
8.6355e-06
7.2749e-05
-0.0026171
-0.00256995
0.000409437
0.000200005
0.000449845
0.00180982
0.000617043
-0.000373262
4.97687e-05
0.0014378
0.000393678
-0.000867168
0.00134451
-0.000143171
0.00152672
0.000729108
-0.000838767
0.000192468
0.00128741
0.000985547
0.00198192
0.000623805
0.00252508
-0.00270426
0.00101671
-0.000303482
0.000780704
-0.000450699
-0.00100555
-0.000536186
-0.000600222
-0.000602239
0.000323668
-0.000722946
0.00104547
-0.000534129
0.000116394
0.000693464
0.000211937
0.00128832
0.000231962
-0.00127269
0.00104073
0.00220994
0.000740303
0.00116754
0.00111386
0.00111402
-0.000921553
6.57648e-05
-0.00302046
0.000987561
0.00390209
-0.00251433
-0.000238969
0.000173049
0.000376656
-0.00102479
0.00166769
-0.00247965
-0.000152478
-0.00149847
0.00165095
0.000473519
-0.000608285
0.000740282
-8.09646e-05
-0.000705757
0.000568807
0.00121774
-0.000455048
0.000995331
-0.00195488
-0.000249252
-0.000651439
-0.000406974
-0.000153339
-2.04282e-05
0.00132625
0.000992077
-0.000106037
0.00127337
-0.000501791
0.00119218
0.000389862
0.000562605
-0.000952467
0.000481204
0.000830664
-0.000683348
0.0021968
-0.00118246
-0.00101433
-0.0017167
0.00141775
0.000534448
0.00108345
-0.000354346
0.000417401
0.000437914
3.27493e-05
0.00220933
-0.000399506
0.00256549
-0.00139795
-0.000206189
0.000235718
0.000794134
0.000732589
-0.000528239
0.00126698
0.00174913
-0.00174758
0.00129689
0.000779972
0.00146951
0.000647071
-0.00151424
-0.00231647
-0.000300626
-0.000203564
0.000593426
0.000323053
0.00029399
0.000423942
-0.000920625
-9.04491e-05
0.000871153
0.00209394
-0.000787731
0.000591917
0.000688308
0.000357166
0.00141794
0.00210267
0.000107279
0.00164614
0.00225595
0.00067489
-0.000427485
0.00103528
-0.000294973
0.000230886
0.000883136
0.000728525
-0.000695706
-0.000625622
0.000787053
-4.67716e-05
-0.000355455
-0.000801335
0.000366142
-0.00275869
0.00282445
0.000455332
0.00175399
-0.00065368
0.000117494
-0.00254471
0.00302592
0.00106684
0.00170316
0.0012358
0.000580228
0.00110639
-0.00027573
0.000530936
-0.0035563
0.00121218
-2.00031e-05
-0.00113451
0.00121618
0.00110615
0.000793492
-0.000140082
0.00152592
-0.00213421
0.000521899
-0.00122766
0.000778385
0.000495687
0.000777682
0.000752049
-9.29634e-05
0.000431491
-0.000428952
-0.00284471
0.000453484
0.000749155
0.000668593
0.00121685
-0.000681681
0.000442713
-0.0022557
-0.000223956
0.00107215
-0.000292178
0.00010855
0.00115843
0.00102859
-0.00171194
0.000501848
-0.00087511
-0.000502894
0.00122828
0.000525499
0.00119265
0.000225288
0.00129993
0.00162031
0.000519196
-0.00186982
-0.00035969
0.00029503
0.000298396
-0.00255632
0.000566011
-0.0010678
-0.000485649
0.00216556
0.00169705
0.000627056
-0.000770227
0.000331228
0.000538514
0.000777177
0.00402569
-0.00237956
0.000178795
0.000413122
-0.000340263
-0.00241843
0.000991686
0.00110147
9.1699e-05
0.0011478
-0.000459496
-9.00862e-05
0.00179325
0.000511586
-0.000178564
0.000965617
0.000878667
-0.000298439
1.5401e-05
0.0012204
0.000350169
-0.000443132
-0.000601534
0.000609929
-0.000221098
0.000784069
-0.00140969
0.0014788
-0.000372655
-0.000545206
0.000138232
-0.000130849
0.000483568
-0.000289836
0.00204383
-0.00101772
-0.000729866
0.00120307
0.000478951
0.000587893
-0.00183132
0.000282446
0.000511046
0.00117719
-0.00042514
0.00094899
0.00051297
0.000353549
-0.00107834
7.59868e-05
0.000355505
-0.000954674
0.00154726
0.000473825
0.000104813
0.00125663
0.000630245
-0.000398322
-0.000354614
0.000516404
0.000183319
0.00117383
-0.000443586
0.000913186
0.00088501
0.000883095
0.000345181
0.000676432
-0.000882621
0.00135877
-5.88436e-05
0.000548376
0.000397977
0.000682722
0.00141493
-0.00184388
-3.39059e-05
-0.00104122
0.000274111
0.0013462
0.000117309
0.000661076
0.000908486
0.00110838
-0.000917065
0.00010586
-6.30198e-05
-0.0019876
-0.00014661
0.000327778
-7.18702e-05
0.00071724
-0.00122013
4.77345e-05
0.000998273
-0.000221096
0.000580843
0.000207737
0.000620008
-0.000563517
-0.000468408
-0.000297012
0.00126869
-0.000953236
0.000301797
0.00150341
-6.09015e-06
0.000419212
-0.000616005
-9.43821e-05
-0.00221155
0.00199464
0.00203105
-0.00053568
0.000404831
0.000235986
0.000755699
0.00210035
0.000674913
0.000648673
-0.00100413
-0.00116007
0.000761748
0.000148535
0.000179244
0.000699834
5.10103e-05
0.000640075
-0.000458462
-0.000676043
0.00149452
0.000549711
0.00149412
0.000748725
0.000852373
0.000295431
0.000660221
-0.000554361
0.000382393
0.000101175
0.00106794
-0.00155359
-0.000350562
-0.000511784
0.000329671
0.00121759
-0.00295329
0.00346488
-6.86497e-05
-8.71642e-05
0.000600135
0.00066702
0.00178878
0.000716554
0.000232436
-0.00113221
0.000772522
0.00138038
-0.000177307
-0.000287963
0.000372914
0.000747032
4.42154e-05
0.000955241
0.000513901
-0.00116978
0.000797126
-0.000341752
0.0007968
0.000943646
0.000312986
0.000174291
0.00099954
0.00110451
-0.000219497
8.94563e-05
-0.000771138
-0.00271411
0.000157785
0.00167587
-0.00264678
0.00317771
-0.000256594
0.00025151
0.000222315
0.00128883
0.00300468
0.000310814
0.00110757
8.08917e-07
0.000121614
0.000297599
-0.000226437
0.000883411
0.000682648
0.000609723
-0.000650462
0.000587443
-9.37947e-05
0.000908774
-0.00135236
0.00104873
-0.000169538
0.000174454
0.00052538
-0.000471136
0.000234396
0.000346446
0.00092999
0.000153433
0.00134108
0.00076663
-0.00112124
0.00196006
-0.000743885
-0.0026631
-0.000311361
-0.0020448
-0.00271215
0.000880822
-0.00089446
0.000426052
0.00020586
0.000434215
-0.00175829
-8.55852e-05
-0.0019049
-0.000629726
0.00212384
0.00195078
-0.000447372
0.00139204
0.00108532
0.0017149
-0.000446212
0.000563368
-0.000182453
-0.000380915
0.00135174
-0.00164875
-5.03276e-05
0.00027903
-0.00153417
0.000465242
0.00136027
-0.000405032
0.000373124
-0.00236458
0.000153028
0.000438296
0.000776162
-0.00099726
0.00115297
-5.80253e-05
0.00173389
0.000881197
-0.00123176
0.000306015
6.68993e-05
-0.00112785
0.000950538
0.00137869
-0.000822062
0.000258545
-0.00033072
0.000956802
-0.000160002
0.00114078
-0.000201846
0.000224885
0.000522147
0.000456712
-0.000307018
0.00126979
0.000313115
0.000250254
0.000450284
0.000433126
0.00134861
-5.97839e-05
-2.93302e-05
0.000326929
-0.0022068
0.000328594
-0.000339663
-0.00010646
-0.000573468
0.00124049
-0.000237498
-0.000223817
0.000534631
-0.00193962
-7.2749e-05
-9.08472e-05
-0.000674857
0.000120496
0.00140809
-0.000555716
0.00111503
-0.00145678
0.00134942
0.000270977
-0.000489078
0.000100423
0.000388655
0.00128306
0.00132106
0.000975665
0.00126753
-8.35449e-05
0.00102492
0.00109893
0.000276685
-0.000396009
0.00179706
-0.000748325
-0.000240047
-0.000424703
0.000219868
0.000204835
-0.00138912
-0.000444323
0.000477072
0.000188024
0.000741966
0.000210398
0.000571331
-0.000237327
-0.000516489
0.00190853
-0.0011767
0.00126615
0.00077965
0.000106685
-0.000515821
0.000409136
0.00136841
-0.00106856
0.00120679
-0.000416312
6.72006e-05
-0.000667422
0.000451449
0.00111865
-0.000935329
0.00135084
0.000994177
-0.00364095
0.00101565
-0.00132701
0.0012174
6.33786e-05
0.000374917
0.000658926
0.00048185
0.000117319
0.00103565
-0.000546757
0.000496429
0.00107337
-0.000122832
-0.00205418
0.00158305
0.000668337
-0.0001199
0.000475404
0.00155502
-0.000285228
0.000919191
0.00160548
-0.00169107
0.000710172
0.00109205
-1.21268e-05
0.000282712
0.000215434
0.000863922
-0.00109036
-0.00246941
0.00355473
0.000263062
0.00280465
0.000864433
-0.000933083
-0.00267548
-0.000118087
-0.000212633
0.00204751
-0.00189449
0.000451344
0.000334356
0.00019507
0.00013186
0.000142609
0.00149523
-9.97034e-05
0.00138276
-0.000216107
-4.32716e-05
-0.000749724
-0.000519703
0.00126943
-0.000201632
0.000161158
0.000211966
0.000248019
-0.000917282
0.00189295
-0.00140522
0.000450544
0.000942094
-0.00117959
0.000514618
-0.00011099
-0.000813692
0.0021345
-0.000785077
0.000859285
0.000852819
-0.000946613
0.00132337
-0.00152521
0.000331444
0.000424705
-0.000519087
0.000141495
0.000315217
-0.000199441
0.000409839
-0.000611963
0.00171089
-0.000674362
0.000367344
0.000991249
0.000798238
-0.000741828
0.00026862
8.06509e-06
0.00339946
-0.00268916
0.000482366
-0.000177933
-0.00121608
0.00248361
-0.000133419
0.00093595
0.00239937
-0.00107831
0.00138617
0.000175475
-0.00359077
0.00165115
0.00102032
-0.00126037
0.000118958
0.000452373
0.000102371
0.000565967
-0.000484425
0.00170183
0.00058422
-0.000133338
-0.00131346
0.000701496
0.00116454
-0.00140186
0.00152038
-0.00152038
0.000175334
0.000519087
-0.000474872
0.000253104
-0.000375936
-0.00103149
0.00212354
0.000608292
-6.28161e-05
0.000257886
4.04709e-05
0.000898335
-0.00172802
0.00217946
0.000293018
-0.00168976
0.00269528
-0.00134443
-0.000383251
0.000371124
-0.000148265
-0.00200773
0.00101749
-0.000734778
0.000205805
7.78173e-05
0.000632355
-0.000627701
0.000231692
0.000982263
-0.00108872
0.00108591
-0.00217454
0.000732262
0.00110634
1.23112e-05
0.000152129
6.33054e-05
0.00218534
-0.000690104
-0.000260358
0.00086146
2.65888e-05
0.000262486
-0.000162477
0.000353462
-0.00015129
4.97438e-05
0.000101546
-2.35756e-06
0.000861642
3.77765e-05
-0.00015927
2.79535e-05
9.08472e-05
-0.000769444
-0.000972769
-0.000622075
0.000452537
0.000434175
-1.71254e-05
-7.08955e-05
0.000564317
-0.00174102
-0.000929795
0.00192104
0.00140026
-0.00143422
0.0014792
0.0014053
-0.000178633
0.00111458
0.00111129
-0.0013274
-0.000102974
0.000431568
0.00293909
-0.00194492
0.00182061
-0.001678
0.000129539
0.00150949
-0.00155276
-0.00327521
0.00246152
0.000160194
-0.00408177
0.00140629
-0.000108937
0.000284412
-8.02638e-05
0.000530192
-0.000527503
0.000111191
-0.00151686
0.00210108
0.000772033
-0.00228275
0.000388269
-0.000460706
0.000282772
-0.00107587
0.000699931
-0.00180039
-0.000509901
-0.000198426
-1.57248e-05
0.00107131
-0.00107131
-0.000295811
0.00267236
-0.00128619
-8.95812e-05
0.000606681
0.000629997
0.00103194
-0.00116528
3.56496e-05
-0.00243062
-0.000448765
0.0013471
-5.10132e-05
0.000534417
-0.000483404
0.00131851
-0.00145193
0.000153549
-0.000149079
0.00129849
-0.00125802
0.00068301
-0.00109574
-0.00129947
0.00216093
0.000153985
0.000103901
0.00161147
-0.000879206
0.00183502
-0.00227356
0.00297506
6.55157e-05
0.000227502
0.00032572
0.00132793
0.00109418
-0.00124244
-0.000761642
0.00183295
-8.33518e-05
0.000363999
0.000474873
-0.000354377
0.000531377
0.000665818
0.000921364
-0.000232935
0.000259524
-0.00426847
0.00226074
0.000238677
-3.2872e-05
0.000621572
3.24528e-05
0.000321009
0.00329742
-0.00221151
0.00011305
5.14766e-05
-0.00320343
0.0031863
0.000136795
0.00033861
0.00121107
-0.00137355
-7.91261e-06
0.000442087
0.00139816
0.00116168
-0.000444714
0.000184356
0.00247041
-0.00107015
0.000764548
-0.000762545
0.00153458
-0.00251319
0.00200329
-0.000161942
0.00115483
-0.0013141
-6.6519e-05
0.000596711
-5.67818e-05
-0.000412111
-0.00223466
-0.000171531
0.00184326
-0.00127894
0.00206656
-0.00136663
0.00342632
-0.00202102
3.68231e-05
-0.00180695
0.000808546
0.000147054
1.31401e-05
-0.000156452
0.000786449
-0.00185217
0.00245886
0.00327044
-0.00179124
0.000584555
0.000557374
-0.000148238
-0.00054571
0.00043472
0.000219501
-0.000453036
0.00118422
-0.000116324
-0.000307689
0.0009907
0.000259955
-7.11008e-05
-9.07521e-05
0.000194653
0.00257293
0.00072449
0.000299363
0.000181503
0.000308756
-0.000293691
0.00020411
0.000147924
-0.000228368
0.000313096
-0.00422678
0.00179616
-0.000137336
0.00166486
-0.00153532
0.00035146
0.000205913
-0.000514883
0.0011807
-3.41675e-05
-0.00409941
0.00300366
0.00163467
-0.00110329
0.000112104
0.00145388
-0.00146961
0.000755465
-0.0014153
0.000375569
-0.00108622
0.00170779
0.00198947
-0.0016012
-0.00294208
0.000997161
0.000311472
0.00097762
-8.76141e-05
0.00122474
-0.00137381
0.00199288
-0.00107152
0.000440259
0.002876
-0.00154807
-0.000822732
0.000420948
9.29537e-05
0.000114182
1.94857e-06
0.00121481
-0.000384488
8.86768e-05
-0.000200131
0.000478759
-0.00149086
0.000431867
0.000448356
6.95388e-05
4.35115e-05
-0.00196604
0.00125674
0.00124942
-0.000913104
-0.00266911
0.002257
0.00133126
-0.00141461
-0.00303499
0.00166836
-0.00103171
0.000922735
0.000475817
-0.00241716
0.000616775
-0.000118829
0.000170305
-0.000755808
0.00134036
0.000964006
0.0016223
-0.000210256
-0.00165262
0.00108476
0.000243
-2.34987e-05
0.00226589
-0.00145735
8.26787e-05
-7.19498e-05
0.000331905
-9.31724e-05
6.26738e-05
-8.93634e-05
-0.00359749
0.00136283
-0.00151086
0.00181961
-4.22929e-05
-0.000298833
0.000136891
-0.00430183
0.00249488
-9.47232e-05
0.000424893
-0.000129746
0.000442841
0.000850596
0.00251718
-0.00133297
0.000354376
-0.000243185
-0.00328539
0.00305702
-0.000204039
0.000579607
0.000196938
0.000851515
-0.000839204
0.00188554
-0.00113007
-0.000302179
0.000742438
-0.000548319
0.000208656
-6.18279e-05
5.56568e-06
5.62622e-05
0.00017068
2.39732e-05
0.00129933
-0.00141565
0.000739965
-0.00129817
-0.00211946
0.00084052
-0.000438936
0.000917695
0.00308273
-0.00278337
0.000839204
-0.0009101
-0.000851515
0.000889292
-0.00102112
0.00146948
0.000814022
-0.00180133
0.000969114
-0.000173148
0.000138981
0.00017105
-0.000610435
0.00108625
-5.49083e-05
0.000202833
-0.000990363
0.000910099
-0.00283717
0.00180546
-0.000659041
0.000299311
0.00035973
0.000129115
-1.49332e-05
0.00278326
-0.0011149
0.00342048
-0.00269599
-0.000580165
-2.84365e-06
0.0035518
-0.00233699
-0.000424704
3.97182e-05
0.000319243
0.00177972
-0.00146825
0.00020216
-0.00194656
0.0017363
0.00132591
4.90773e-05
-0.00365725
0.00274415
0.000244396
0.00155918
-0.00144708
0.000162927
0.00215822
-0.00123548
0.000238804
-0.000954713
-7.44862e-05
-0.000202656
0.00322249
-0.00197307
-0.00390246
0.00193641
0.000277429
0.000147182
-0.000126944
8.95776e-05
0.00143178
-0.00142983
0.00026578
-0.000128889
0.000303503
-0.000600232
6.56495e-05
6.94886e-05
1.319e-05
-0.000806222
0.00123111
0.000954714
-0.0010115
-0.00132837
0.00152531
0.000307259
-0.000889291
0.000690865
0.000112734
3.81521e-05
-0.000150886
0.000825251
1.71742e-05
-0.00140758
-0.0029363
0.000152929
-0.00157925
-0.00208392
0.000482717
0.000102392
0.00279007
-0.00170532
0.000169975
0.000261892
0.00189737
-0.0011574
-0.00126887
0.0010115
-0.0010826
0.000141103
-0.000112734
-0.000207737
0.000320471
-0.000190105
9.53814e-05
0.000767293
0.00134638
-0.00138867
0.000280031
-0.00146714
-0.00010673
0.000130703
7.42066e-05
-5.11232e-05
0.00048418
0.00199309
-0.00117907
-0.000526707
0.000378469
-0.000322854
0.000855813
0.000885494
5.45558e-05
-0.00361353
0.00231536
9.61027e-05
0.00195239
-0.00111187
-0.000169102
0.000340153
0.000243186
-0.000154509
-0.0010182
0.00133745
-0.00250075
0.00138586
-0.00208723
0.00150706
0.0010826
-0.00117021
-0.000243629
0.000445789
-0.000695295
-9.19876e-05
0.000519334
-0.000690865
-0.00296266
0.00276
0.00058698
-0.000519779
-0.000350923
-0.000333361
0.000572165
2.10611e-05
2.80162e-05
0.000817
-0.00329167
0.00149035
0.000757613
0.000252352
-0.000105171
0.00246601
-0.0014969
-0.00044171
0.000719139
-0.00159359
0.00146664
0.000300007
-0.00035102
-6.92708e-05
0.00282356
-0.00267063
-0.000574846
0.000878349
0.00243549
-0.00143833
-9.12136e-05
8.837e-05
-0.000869382
0.000184704
0.000557742
-0.00314127
0.00254104
0.000212908
0.00162866
-0.00138427
9.08472e-05
0.00233664
-0.00101072
-6.82766e-05
-0.000728986
0.00103625
0.000508585
-0.00135526
1.11786e-05
3.42508e-05
0.00117021
-0.00125957
0.000181583
-0.00123565
0.00137675
0.00106777
-0.00183835
0.000370104
-0.000139097
-0.00276404
9.34108e-05
-0.000381269
0.000178418
-4.77148e-05
0.000760695
8.32494e-05
0.000782878
0.00310681
-0.00262263
0.00218223
-0.00135698
0.000174264
-7.88824e-05
4.5375e-05
-0.00330439
0.0018968
-0.000896092
0.00117612
0.00189137
-0.00112407
9.65232e-05
0.000477072
0.000794985
0.000112427
0.000342768
0.000130455
0.00291836
-0.00203286
0.000426161
0.00149179
-0.00140221
0.00051417
-0.00016271
0.00121095
-0.000623972
0.000712295
0.00318094
-0.00232512
0.000144293
0.000331717
0.000101801
-1.5427e-05
-1.45184e-05
2.99453e-05
-3.27223e-05
0.000106929
0.000149363
7.32481e-05
-0.00135564
-0.00195926
0.00126396
6.19512e-05
-0.000113812
6.26889e-05
6.10227e-05
-6.46688e-06
0.00146304
-0.00144587
-0.00168868
0.00133776
-0.000989026
-0.000452198
-6.81883e-05
0.000164291
-2.54423e-05
0.000567165
-0.00108687
0.00261541
-0.00179841
0.00264155
-0.00254814
0.000154508
-8.88588e-05
0.000558306
0.00125957
-0.00133406
0.00210279
-0.000716935
-0.0031075
0.00223811
0.00199584
-0.00123823
-0.000222039
0.00283479
-0.00249202
0.000140154
0.000593233
0.000703557
-0.000403551
0.000685339
1.2589e-05
-0.00273039
0.00259129
-0.00056646
-0.00199306
0.000881196
-0.00106565
0.00127856
0.00109207
-0.00140445
0.00133617
0.000183778
-0.00275494
0.00117569
0.00284741
-0.0022891
7.43696e-05
0.000582546
-0.000113443
6.57285e-05
-0.00281951
0.00243824
0.000783488
0.000507784
-2.76981e-05
-0.00165411
0.000269845
-0.000618215
2.53586e-05
8.8922e-06
0.00259468
0.000240107
0.000638856
0.000504146
-0.000204835
-8.8839e-05
0.00266021
-0.00206698
0.000355388
0.000110467
0.00183085
-0.00103587
4.65412e-05
-0.00128401
2.83001e-05
0.00236173
-0.00160104
-0.0012646
3.87415e-05
0.000706782
-0.000925293
4.17437e-05
0.00152169
-0.00134011
5.29223e-05
-0.00290478
0.00154952
-0.000954713
-0.000133005
5.08473e-05
-0.00241632
0.00265643
0.00184289
-0.0011306
0.000371112
0.000570026
0.000563323
-0.00122052
0.00132232
-0.000228217
-0.00208752
0.00062038
0.00267944
-0.00232405
-0.00278311
0.00221665
-0.00140333
0.00133406
0.000112734
0.00010835
-4.56611e-05
0.00024135
-0.00059237
0.000263121
2.94682e-05
-0.00164483
0.00119263
-0.00291081
0.00192179
0.00177759
-0.000513625
0.00244167
-0.00185912
-0.000672698
0.000604669
0.00176874
-0.000887546
-0.000690865
-0.00100798
-0.00034487
0.000572508
-0.000331159
0.00106065
1.88922e-05
-0.000307072
-0.000221735
0.000294983
-8.08687e-07
1.33977e-05
-0.000294982
0.000378231
0.00212462
-0.00143928
8.88594e-05
-4.34844e-05
-0.000279255
-0.000481159
0.000318449
-0.000378232
0.000474755
-0.00235922
0.000920892
0.000623972
-0.000440193
0.000374688
-0.00146776
0.00124572
-0.000426161
0.000334174
-0.000474754
0.000587181
0.00249451
-0.0021234
-0.000587181
0.000717636
0.000119483
-0.000431568
-2.33395e-05
0.000454908
-0.000717636
0.000861929
5.80406e-05
-0.000560184
1.18646e-05
0.000170457
0.00261759
3.88352e-05
-0.000861928
0.00101129
-0.00181782
0.000892532
-6.53354e-05
3.98931e-05
0.000523581
-0.000725758
-0.00261121
0.00265775
-0.000131592
-0.00273665
0.00250844
0.00193111
-0.00129226
0.00139135
-0.000512582
-0.000878767
0.00172194
-0.00101516
0.000221734
-0.000156006
0.00261923
-0.00270807
-0.00010269
0.00222918
-0.00166586
0.00151638
-0.00124653
0.000732873
-1.24138e-05
0.000181069
0.000168958
-0.00101129
0.00115145
-0.00130464
0.000475736
-0.00183137
0.000591341
-0.00132803
0.00130034
0.000370057
8.08368e-06
0.00229581
-0.00192112
0.000491835
0.000176266
-0.00264002
0.00196733
-1.78704e-05
7.97643e-06
9.89394e-06
0.00246647
-0.00220335
0.00147409
-0.00141214
0.000172411
-0.00268178
0.00233691
-0.000423371
0.00176036
-0.00115569
0.000156006
-0.000105159
-0.00162163
0.000734089
-0.0015514
0.00103777
0.000105161
-6.64192e-05
0.002017
-0.00149342
-0.00118353
-0.00132896
6.38578e-06
-0.00163078
0.000346773
0.00263737
-0.000715587
-0.00115145
0.00126191
-0.000117426
-0.00161487
0.000889114
-0.000358765
6.6419e-05
-3.81189e-05
0.00160858
-0.00087571
-5.71087e-06
-5.03194e-05
0.000468107
-0.000729102
2.82189e-05
-0.000554218
-0.00253678
0.00127218
0.000593426
-0.000173343
0.000258998
-0.000538253
0.0016294
0.000481155
-0.000222157
-0.000987254
-4.47317e-06
0.000351147
0.00250531
0.00220335
-0.00203289
-0.00144058
0.00113351
0.000440193
-0.000271236
0.00146509
-0.000731
0.00209805
-0.00172799
0.000149996
4.34847e-05
-1.40165e-05
0.00138728
-0.000879492
0.00161175
-0.0010204
-0.00115504
-0.00121099
-0.000206536
-0.0014737
0.000227168
-0.00112693
3.81207e-05
-1.92285e-05
0.00182565
-0.00133382
-6.47812e-05
1.91204e-05
0.00147184
-0.000878414
-0.00146388
0.00073478
0.000176926
0.000589379
-0.000194862
-2.48888e-05
-0.00134453
0.00146401
-0.00126191
0.00131995
0.000456051
-0.000574768
-0.00125022
0.00142649
-0.00143502
0.000880798
-0.000437716
0.00023118
-0.00254964
0.00212627
-0.000334174
0.000231484
0.00165098
-0.00118287
0.000451436
-0.00243203
0.00171644
0.000332232
0.00203289
-0.00186048
0.00132457
-0.000735193
0.00135863
-0.00113146
1.9228e-05
-1.11443e-05
-0.000397245
0.000411558
0.000446158
-0.0004647
-0.0013628
0.0012312
-0.00131883
0.000587828
-0.000212728
0.000475545
-0.000213654
-0.000431568
-0.00136552
0.00100675
0.00189947
-0.00154832
0.00149154
-0.00103549
0.00234395
-0.00246137
-0.000584048
0.000271236
-0.00012124
-0.00250531
0.00251169
-0.00130408
0.000729315
-0.000888186
0.00133962
-0.00251169
0.00246137
1.11443e-05
-1.56175e-05
-3.7921e-05
2.55072e-05
-0.000119268
-0.00234395
0.0021706
0.00031716
0.00010841
0.00117864
-0.000590808
0.00118861
-0.000742455
0.000273321
-0.00140025
-0.000423285
0.000171479
0.000308671
0.00235348
-0.000724089
-0.00131995
0.00131424
0.000443443
-6.24603e-05
-0.00220335
0.00186048
-0.00168356
8.19547e-05
0.00136623
0.000300427
0.000304129
-0.00111402
0.00203492
-0.00126423
0.000132765
-0.00126582
0.000868575
-0.00222101
0.00103748
-0.00116749
0.000583438
-0.00194086
0.000826839
-0.000990905
-0.000232005
1.56177e-05
1.09572e-05
-2.65749e-05
0.000414972
-0.00157002
-0.000948831
0.000234647
0.000273938
-0.000231484
0.000112216
-0.000985276