/*--------------------------------*- C++ -*----------------------------------*\
  =========                 |
  \\      /  F ield         | OpenFOAM: The Open Source CFD Toolbox
   \\    /   O peration     | Website:  https://openfoam.org
    \\  /    A nd           | Version:  8
     \\/     M anipulation  |
\*---------------------------------------------------------------------------*/
FoamFile
{
    version     2.0;
    format      ascii;
    class       volVectorField;
    location    "0.4";
    object      U;
}
// * * * * * * * * * * * * * * * * * * * * * * * * * * * * * * * * * * * * * //

dimensions      [0 1 -1 0 0 0 0];

internalField   nonuniform List<vector> 
1924
(
(-0.0601047 0.216017 2.13184e-17)
(-0.0768131 0.55649 1.73011e-17)
(0.237191 -0.118545 2.50536e-18)
(0.238311 -0.155469 2.74065e-18)
(0.0139918 0.436567 1.61543e-17)
(0.400219 -0.25754 4.33053e-18)
(0.42319 -0.208207 3.28634e-18)
(0.574312 -0.30942 4.00646e-18)
(0.653185 -0.207984 2.94254e-18)
(0.108689 0.00948403 1.55865e-18)
(0.795034 -0.304524 2.72352e-18)
(0.86742 -0.271707 1.42459e-18)
(0.631158 0.669285 -2.54479e-19)
(1.0072 -0.366951 -5.03516e-19)
(0.428068 -0.762483 1.00106e-17)
(0.132719 -0.411763 1.16907e-17)
(0.636025 0.591856 1.68901e-19)
(1.02773 -0.402297 3.88882e-19)
(0.244401 0.186876 2.27336e-17)
(1.09749 -0.503684 -3.00661e-19)
(0.452553 0.665839 2.06942e-18)
(0.376144 -0.0925527 4.50802e-18)
(0.939721 0.411601 -4.20752e-18)
(1.03332 -0.589144 -7.72264e-19)
(0.383072 -0.185777 5.57662e-18)
(0.397017 -0.198185 8.12611e-18)
(0.46381 -0.0528368 9.81213e-18)
(-0.135438 0.224059 3.87371e-18)
(0.00807574 0.174524 1.61635e-17)
(0.23374 -0.165308 -1.06418e-19)
(0.717343 0.523467 5.45141e-19)
(0.334746 -0.0884414 5.74014e-18)
(-0.0865348 0.143956 2.19008e-17)
(0.70854 0.589979 -2.72185e-19)
(-0.0967979 0.217168 3.53116e-18)
(0.804582 0.253039 -8.05486e-18)
(0.322501 -0.161208 6.00008e-18)
(0.122291 0.303819 1.07249e-17)
(0.235411 -0.0777316 1.83991e-18)
(0.678518 0.497995 1.95351e-19)
(0.320202 -0.158079 6.92482e-18)
(0.578929 0.739976 6.22659e-19)
(0.340984 -0.165871 6.8072e-18)
(1.03823 0.461718 -4.18594e-18)
(0.684676 -0.498563 5.21939e-18)
(0.0231857 0.00450762 1.78177e-17)
(0.20492 -0.0198018 1.25936e-17)
(0.0857021 -0.139074 -9.158e-19)
(0.551961 1.01969 7.60428e-19)
(0.295464 0.551477 3.22481e-18)
(-0.430714 -0.146873 4.90449e-19)
(0.523669 0.632204 9.13457e-19)
(0.398225 -0.117869 4.01621e-18)
(-0.636966 -0.0394909 9.73317e-19)
(0.072557 -0.0134644 1.60662e-17)
(-0.0798349 0.0863269 1.48634e-18)
(0.228391 0.114727 1.78738e-17)
(0.090297 -0.414195 -4.93694e-18)
(0.019522 -0.27709 -1.86652e-18)
(0.7058 0.577845 1.52841e-17)
(0.60614 0.189092 -5.04728e-18)
(0.417042 0.109343 9.1691e-18)
(0.615163 0.233907 -2.52875e-19)
(0.0584254 -0.184648 9.07655e-19)
(-0.485474 0.015885 1.05748e-18)
(0.069129 -0.0766908 -6.32176e-19)
(0.396807 1.68384 2.86263e-18)
(0.856814 0.266625 -3.86019e-18)
(0.0603948 -0.0125403 1.76083e-17)
(-0.124194 -0.0673968 1.07115e-18)
(-0.0160027 -0.0768465 3.74907e-18)
(0.146087 0.438766 7.94415e-18)
(0.256404 -0.0971313 1.0992e-18)
(0.265194 -0.183618 4.39494e-19)
(0.204174 -0.186879 9.89573e-19)
(-0.00424113 0.109001 1.24107e-17)
(0.178327 -0.0577371 -5.5314e-19)
(0.239042 -0.245104 5.57948e-19)
(0.159262 -0.239223 -1.72102e-19)
(0.13339 -0.159688 -1.0112e-18)
(0.409253 -0.457706 -1.03202e-19)
(0.51401 0.17063 1.25528e-17)
(0.0286206 -0.352546 1.8318e-18)
(0.265179 0.405246 2.70344e-18)
(0.00247336 0.123581 2.11153e-17)
(0.802792 0.269978 -3.90603e-18)
(-0.12148 -0.0529223 1.29724e-19)
(0.928654 -0.669143 7.88376e-18)
(0.329519 0.654038 1.73339e-18)
(0.0194813 -0.016394 3.92436e-18)
(0.746163 1.51748 5.07934e-18)
(0.39598 0.0451071 1.20851e-17)
(0.112748 0.0143573 1.61153e-17)
(0.218582 -0.0836935 1.45599e-17)
(0.121231 0.137845 3.16556e-18)
(-0.459982 0.0742678 7.87237e-19)
(0.173646 0.00788818 -3.00753e-19)
(0.49043 -0.45191 3.19343e-20)
(0.6418 0.549362 1.61084e-17)
(0.0646646 -0.0594751 4.60485e-18)
(0.534273 0.0359376 3.22737e-18)
(0.238183 0.32884 2.63546e-18)
(0.584488 0.716684 1.7568e-17)
(0.410834 0.237332 1.26539e-17)
(0.285842 -0.11851 1.41827e-17)
(0.273884 -0.285302 1.10375e-18)
(0.719541 0.184908 5.24999e-18)
(0.249953 -0.0884101 1.31173e-17)
(0.725496 0.399491 1.56503e-17)
(0.190539 -0.0166115 1.52178e-17)
(0.276457 0.0401642 4.08891e-21)
(0.189634 -0.108242 1.22238e-17)
(0.0792806 0.39937 1.02944e-17)
(0.10852 -0.213134 7.20367e-19)
(0.200068 -0.218936 -1.83116e-19)
(0.136845 0.236158 3.69624e-18)
(0.475143 -0.12636 3.73308e-18)
(-0.139635 -0.492956 1.33926e-17)
(0.458023 0.180029 1.28966e-18)
(0.211527 -0.154658 -5.60844e-19)
(0.18469 0.101695 2.42533e-17)
(0.859099 0.0623979 -1.43276e-18)
(0.498183 0.779481 1.10256e-18)
(0.0343851 0.0699546 4.68175e-18)
(0.185355 1.26879 4.42958e-18)
(0.346759 -0.100486 1.26339e-17)
(0.0414822 -0.0108952 5.1316e-18)
(0.234492 -0.263847 5.25813e-19)
(0.240282 -0.00938035 1.51006e-17)
(0.747468 -0.167868 -9.0289e-19)
(0.294204 -0.00845443 -8.2283e-20)
(0.723055 0.133001 3.66382e-18)
(0.042828 -0.115864 1.46449e-17)
(0.403484 -0.301836 1.06929e-18)
(0.377201 0.448196 2.0001e-18)
(0.418959 -0.140998 1.39563e-17)
(0.371764 0.278173 6.63089e-18)
(0.489081 0.191693 7.41659e-18)
(1.09238 -0.707906 -2.59716e-19)
(0.0240401 0.283285 5.63165e-18)
(-0.0439201 -0.0643299 -4.6847e-19)
(0.460787 1.0783 4.43457e-18)
(0.192762 -0.616681 4.86411e-18)
(-0.0144613 0.0060923 1.6582e-17)
(0.538963 -0.206879 4.29504e-18)
(0.678319 -0.207549 -2.61043e-18)
(0.293378 -0.116497 1.27138e-17)
(0.0149468 -0.122203 4.35554e-18)
(0.516522 0.258332 1.38037e-17)
(0.367135 0.0657143 1.11842e-18)
(-0.0228461 -0.31419 1.36343e-18)
(0.714096 0.00541855 2.11547e-20)
(0.0641787 -0.113624 4.79425e-18)
(0.70218 0.0322005 5.46151e-18)
(0.496511 -0.282859 5.75085e-18)
(0.329042 -0.048476 1.0851e-17)
(0.825442 0.167515 -4.09816e-18)
(0.392892 0.165017 3.34973e-18)
(0.413925 0.00719641 5.73238e-19)
(-0.166656 -0.35083 -7.43714e-19)
(0.352489 -0.225632 5.60864e-19)
(0.0241173 -0.118654 1.44373e-17)
(0.633758 -0.10739 5.81486e-18)
(0.96455 0.0126481 7.48586e-20)
(-0.039842 -0.259076 5.75059e-19)
(0.396493 -0.0864583 1.38493e-17)
(0.386891 -0.0272916 1.14303e-17)
(0.789874 0.18905 -3.26043e-18)
(0.236863 -0.174032 -5.21682e-19)
(0.461012 -0.0374963 1.3371e-17)
(-0.076571 0.0634215 2.09696e-17)
(0.570353 -0.29601 8.98497e-18)
(0.265748 -0.306097 3.91714e-19)
(0.506118 0.229577 1.35213e-17)
(-0.0589148 0.0541948 1.40894e-19)
(0.126472 -0.020719 3.56359e-18)
(0.109597 -0.115267 -8.83665e-19)
(-0.0639087 0.021358 1.64133e-18)
(0.615455 0.0329849 -7.28842e-18)
(0.639785 -0.102104 6.51398e-18)
(0.330466 0.0644284 1.02964e-17)
(-0.0138763 -0.885474 1.03859e-17)
(0.24812 -0.268858 3.34545e-19)
(0.41919 0.0638866 1.2467e-17)
(0.570414 1.05623 -7.11466e-19)
(0.040444 0.0269208 5.19486e-18)
(0.0899876 -0.0910313 5.269e-18)
(0.433066 0.16109 1.16455e-17)
(0.272818 -0.124119 -5.00681e-19)
(0.31968 -0.267229 5.72482e-19)
(0.281181 -0.0964066 1.14765e-17)
(0.611677 -0.322034 6.53304e-18)
(0.442492 -0.062877 4.52618e-19)
(0.614935 -0.211378 6.90798e-18)
(0.572312 0.0820843 1.198e-17)
(0.706373 -0.0075298 6.78896e-21)
(0.547734 0.233111 1.25886e-17)
(0.142921 -0.00915319 4.7379e-18)
(0.223748 -0.024513 9.08787e-18)
(0.183185 0.0403863 3.47169e-18)
(0.000761327 0.118389 2.1836e-17)
(0.0417768 0.314565 7.70938e-18)
(0.612863 0.0225123 8.54334e-18)
(0.787572 -0.281152 4.24274e-18)
(-0.026346 0.154709 2.03173e-17)
(0.313622 0.0629726 9.46891e-18)
(0.749077 -0.132629 6.20678e-18)
(0.146745 0.0356486 3.8429e-18)
(0.0581258 -0.0571189 4.08099e-18)
(-0.0267953 -0.218063 1.02917e-17)
(1.01719 -0.0141757 2.09231e-19)
(0.746792 0.194775 5.76974e-18)
(1.2053 -0.933148 -7.05602e-19)
(0.587878 0.140033 1.22127e-17)
(0.444784 0.150731 1.12845e-17)
(0.259794 -0.276023 3.08813e-19)
(0.247122 0.00676881 1.00047e-17)
(0.151891 0.0855949 4.4641e-18)
(0.860828 -0.165849 4.31809e-18)
(0.218435 -0.274521 6.89549e-19)
(0.24941 0.0899388 1.02423e-17)
(0.274314 -0.18713 -4.36287e-19)
(0.534663 0.132745 1.04961e-17)
(1.22694 -1.0068 1.58936e-18)
(0.882476 -0.302795 2.99842e-18)
(0.571429 0.220835 1.29629e-17)
(0.557045 -0.0916275 1.32125e-18)
(0.294155 -0.347778 3.31575e-19)
(0.849031 0.324296 1.23452e-17)
(0.203035 0.0205491 3.78815e-18)
(-0.032123 0.0303053 1.75641e-17)
(0.585912 0.988752 9.11671e-18)
(0.215496 0.000920095 8.67837e-18)
(0.200388 0.14123 2.62709e-18)
(0.671848 0.280129 1.29677e-17)
(-0.0716212 -0.233653 -7.94145e-19)
(0.962121 -1.06981 -1.44141e-18)
(1.06409 -0.0769259 2.71322e-18)
(0.791793 0.366611 6.54499e-18)
(0.733931 -0.0494402 -6.87578e-20)
(0.00653571 -1.05862 6.58543e-18)
(0.262412 -0.0615824 6.53068e-18)
(0.926139 -0.925428 -9.24729e-19)
(0.159075 0.0643956 3.37295e-18)
(0.270231 -0.292811 2.06257e-18)
(0.114946 0.0704416 3.37276e-18)
(1.04625 -0.291988 2.45245e-18)
(0.0728885 0.0664167 1.06217e-19)
(0.253889 -0.260839 4.18726e-19)
(0.283481 -0.344369 -8.90154e-20)
(0.0191073 -0.479891 -3.96808e-19)
(0.960167 -0.0405836 9.53482e-20)
(0.763097 0.381267 1.59842e-17)
(0.83684 0.293892 2.00923e-18)
(0.302718 -0.158487 -3.98627e-19)
(0.992718 -1.18892 2.25873e-18)
(0.399251 -0.172264 8.56776e-18)
(0.274724 -0.0956273 5.30108e-18)
(0.295312 0.118185 1.16129e-17)
(1.13974 -0.138592 1.52713e-18)
(0.341967 0.142 1.13985e-17)
(0.711358 0.362565 1.01718e-17)
(0.538146 0.125289 1.37718e-17)
(0.259697 -0.263222 -4.61886e-20)
(0.294748 -0.0712167 5.89498e-18)
(0.127092 -0.11925 1.9579e-18)
(0.71452 0.863978 -1.28686e-18)
(0.228653 -0.321359 2.88365e-19)
(0.0720623 -0.0791124 1.51276e-17)
(0.141797 -0.480293 6.455e-18)
(0.289267 0.0691205 2.72373e-18)
(-0.065226 -0.25063 7.95884e-19)
(0.0248665 0.0466738 1.91992e-17)
(0.317427 -0.146414 5.23733e-18)
(0.560459 0.890082 1.44067e-17)
(0.377931 -0.527683 6.49222e-19)
(1.12 -0.328727 5.44618e-19)
(0.698423 0.270184 1.34714e-17)
(0.798317 0.234316 3.61604e-18)
(0.204533 -0.0238041 5.68693e-18)
(0.124324 0.063095 2.19305e-17)
(0.693899 -0.0583512 -5.03167e-19)
(0.592584 1.36794 5.00458e-18)
(0.892491 0.487328 1.0455e-17)
(0.252047 0.0750678 2.47709e-17)
(0.27929 -0.255781 4.73772e-19)
(0.568311 -0.180941 6.19664e-20)
(0.911687 -0.120538 -1.00771e-18)
(1.32535 -0.0770437 4.20874e-19)
(0.262592 -0.0588459 5.76545e-18)
(0.774536 0.391702 9.10601e-18)
(0.22384 0.0778555 7.62573e-18)
(0.765222 0.243014 1.28466e-17)
(0.762646 -1.21416 -3.72551e-19)
(0.191156 0.288318 4.38697e-18)
(-0.0180609 -0.25999 6.64275e-19)
(0.853594 -1.20786 5.54281e-18)
(0.272349 0.215275 2.7103e-18)
(0.224271 -0.324143 5.14904e-19)
(0.71455 -1.34104 -4.03672e-19)
(0.584469 -0.141416 -7.9879e-19)
(0.796076 0.304163 4.78181e-18)
(0.698901 -0.984007 -1.9525e-19)
(0.0417126 0.0247148 6.4442e-18)
(1.27251 -0.351058 -3.35589e-20)
(0.372218 -0.113788 8.16775e-18)
(0.741979 0.860852 -1.56281e-18)
(0.680697 -0.867401 -1.85442e-19)
(0.294637 -0.116561 6.37291e-18)
(0.370773 -0.205869 8.94954e-19)
(0.184307 0.14065 3.09205e-18)
(0.28945 -0.0555495 1.12234e-18)
(0.847314 0.613099 1.05684e-17)
(0.7783 0.414591 2.56533e-18)
(0.382312 -0.140277 -3.38903e-19)
(0.768845 0.772385 -1.96415e-18)
(0.388837 0.14806 1.07087e-17)
(1.39267 -0.164083 -4.20322e-21)
(0.915728 0.484094 9.42572e-18)
(0.47703 0.160914 1.19382e-17)
(0.0433014 -0.0411894 3.3539e-18)
(0.313269 0.0218685 3.21488e-18)
(0.714366 0.114243 6.67605e-18)
(-0.0107923 -0.220273 6.95071e-19)
(0.473575 0.0205504 9.78414e-18)
(0.297136 -0.426321 7.96748e-19)
(0.3612 0.00363662 8.16669e-18)
(0.312227 -0.141219 5.93271e-18)
(0.0962319 0.0814198 7.65639e-19)
(0.660295 -0.273485 -1.22678e-19)
(0.220146 -0.0245101 5.4307e-18)
(0.389394 1.4927 4.39799e-18)
(0.736173 0.61438 -4.20678e-19)
(1.27072 -0.444195 -2.23236e-19)
(0.156091 -0.25331 1.0841e-18)
(0.737911 0.292391 1.25784e-17)
(0.738748 0.620023 1.51609e-17)
(0.912008 0.298343 7.88201e-18)
(1.08949 0.730255 8.66092e-18)
(0.778539 0.169768 6.38689e-18)
(0.273026 -0.412597 4.85863e-19)
(-0.101168 -0.20752 6.60139e-19)
(0.396069 0.0225656 7.51416e-18)
(0.283847 0.207115 2.71284e-18)
(0.469786 -1.28501 5.37326e-18)
(-0.214403 0.17209 1.21625e-17)
(0.0103472 0.0474409 1.901e-17)
(-0.0619917 1.191 6.33661e-18)
(0.234577 -0.0590054 7.07529e-19)
(0.366341 -0.0851291 8.18106e-18)
(0.346125 -0.178887 6.71608e-18)
(0.43152 -0.790126 -3.02893e-19)
(-0.0418617 -0.310095 1.0557e-19)
(0.538717 -1.20609 -4.62944e-19)
(0.321621 0.346756 2.22579e-18)
(0.235888 -0.391904 2.59868e-19)
(0.761181 0.581893 -5.49346e-19)
(1.53456 -0.116304 1.36938e-19)
(0.329255 -0.112076 5.10883e-18)
(-0.378462 0.04312 5.00456e-19)
(0.836459 0.511573 8.64026e-18)
(0.4423 -1.40005 -6.00144e-19)
(0.550756 -1.08358 -1.81097e-19)
(0.582937 0.853103 1.66546e-17)
(0.328679 -0.251499 6.47918e-18)
(0.782831 0.0377538 6.76141e-18)
(0.63327 0.552353 4.34527e-18)
(0.39132 0.0275182 2.04633e-18)
(1.02671 0.818217 7.41454e-18)
(0.967648 0.413218 7.27681e-18)
(0.51066 -0.870453 -1.44186e-19)
(0.509732 0.19164 1.24986e-17)
(0.330128 -0.161938 5.0307e-18)
(-0.159043 -1.36973 2.93827e-19)
(0.398933 -0.120972 1.04386e-17)
(-0.0781331 0.0940002 8.5e-18)
(0.369179 -1.43012 1.522e-19)
(0.235 -1.18779 8.75912e-18)
(0.330042 0.0436581 5.94431e-18)
(-0.280168 0.942655 8.32349e-18)
(-0.284829 0.398672 1.11222e-17)
(0.21568 -0.37826 7.39869e-19)
(0.355627 -0.0168977 7.45449e-18)
(0.601451 0.221069 1.31127e-17)
(0.26943 -0.027333 4.36208e-18)
(0.491437 -0.781659 -5.55831e-19)
(0.107303 -0.230372 1.90094e-18)
(0.562488 0.944448 1.4573e-17)
(0.384471 -0.160199 9.35268e-18)
(0.878904 0.107056 6.35565e-18)
(-0.0375255 -0.289229 3.24145e-20)
(0.721419 0.6681 9.67783e-19)
(0.503007 0.112448 1.13949e-17)
(0.285568 1.36239 6.7783e-18)
(1.16366 0.376464 4.78004e-18)
(-0.017768 -0.0242112 1.76054e-17)
(0.397584 -0.166752 7.55283e-18)
(0.3984 0.243417 6.6678e-18)
(0.634491 -0.378051 -6.74674e-20)
(-0.225433 -0.169225 1.45822e-17)
(0.385525 -0.302903 -2.09819e-19)
(0.167747 -0.356017 7.76256e-19)
(0.4101 0.301717 1.24182e-18)
(0.104742 -0.122169 1.45725e-17)
(0.548057 0.0868107 -1.54563e-18)
(0.615945 0.614228 1.5257e-17)
(0.418348 -0.65196 4.16388e-19)
(0.0514915 1.27744 7.73459e-18)
(0.336672 -0.121655 4.72809e-18)
(0.387739 -0.161309 7.36069e-18)
(0.651998 0.617026 9.38273e-18)
(0.59877 0.546718 1.41872e-18)
(1.55021 -0.254917 5.03565e-19)
(1.0614 0.0794377 4.1567e-18)
(1.30921 0.960794 4.38474e-18)
(-0.0899015 -0.122253 1.27784e-18)
(0.3094 -0.523367 7.23562e-19)
(0.307567 -1.34464 -1.10246e-18)
(0.67334 0.315627 -1.0074e-18)
(0.25313 0.109964 6.98854e-19)
(0.346438 -1.24665 -6.80607e-19)
(0.393436 -0.0312567 2.14828e-18)
(0.391317 -0.595462 8.22575e-19)
(0.376451 0.357427 1.64484e-18)
(0.426426 -0.287909 7.21073e-18)
(0.390254 -1.03545 2.2467e-20)
(0.39334 -0.201604 -4.20884e-19)
(0.403327 0.110785 1.18859e-17)
(0.64988 0.73472 5.38914e-18)
(0.554402 -0.0141549 1.25273e-17)
(0.567133 0.680542 1.65109e-17)
(0.277312 -0.496857 4.91685e-20)
(0.649769 0.129327 1.40406e-17)
(0.421808 0.284222 2.52031e-18)
(1.24454 0.572042 5.24774e-18)
(0.434098 -0.153879 1.00437e-17)
(0.394025 -0.9422 5.13237e-20)
(0.744935 0.914828 -2.24812e-18)
(1.23966 0.217438 2.74464e-18)
(0.62473 0.14636 6.32975e-18)
(0.293824 -0.0632412 4.5997e-18)
(0.386395 -0.174383 8.5046e-18)
(0.630388 0.284283 1.26839e-17)
(0.017874 -0.283011 7.58798e-19)
(-0.322717 0.929883 1.01672e-17)
(0.0359427 -0.114911 1.62264e-19)
(0.707486 0.844104 7.60203e-18)
(0.132869 -0.332346 8.29294e-19)
(0.485933 0.0883841 1.14439e-17)
(0.433618 0.669953 1.64924e-17)
(0.00475702 -1.12034 7.8269e-18)
(0.686314 0.732469 3.74147e-18)
(0.691097 0.344524 1.24938e-17)
(0.694305 -0.481057 -1.31677e-21)
(0.395382 -0.168103 7.75957e-18)
(0.665677 0.217113 1.214e-17)
(0.369649 -0.787944 -6.03039e-20)
(0.147639 -1.40956 -8.6917e-19)
(0.333923 0.160514 2.17592e-18)
(-0.155631 0.231107 1.82078e-17)
(0.222644 -0.466684 8.07954e-20)
(0.446901 0.479823 7.09514e-18)
(0.846321 0.775592 -4.11257e-18)
(0.329487 0.0821631 1.15584e-18)
(0.427173 0.257197 1.09888e-18)
(0.247208 0.835461 1.36129e-17)
(0.0162068 1.03583 1.02153e-17)
(1.32646 1.10106 4.87789e-18)
(1.38636 0.165476 7.32052e-19)
(0.320738 -0.265602 5.05039e-19)
(0.364339 -0.157956 8.95661e-18)
(0.534318 0.463156 3.19387e-18)
(-0.057395 -0.29334 1.44475e-18)
(0.356674 -0.725925 -1.07697e-19)
(0.481154 0.044015 4.74836e-18)
(0.202886 -0.457158 1.7475e-19)
(0.156818 -0.170594 1.14192e-18)
(1.56401 -0.163435 2.52134e-18)
(-0.261654 0.844402 1.47281e-17)
(-0.0192754 -0.375262 1.53758e-17)
(0.69101 0.81563 1.09676e-17)
(1.45843 0.521839 2.19309e-18)
(0.487989 0.561576 1.45256e-17)
(-0.136483 0.941068 1.17426e-17)
(0.599118 0.724547 6.23356e-18)
(0.365065 -0.192818 9.05891e-18)
(0.433918 -0.172834 9.00249e-18)
(-0.412118 -1.41796 -3.48693e-19)
(0.621927 0.0261289 1.29671e-17)
(0.46694 -0.229911 -2.21451e-19)
(0.809004 0.81502 -1.84056e-18)
(0.589959 -0.180293 1.41153e-17)
(0.434108 0.319956 3.0454e-18)
(0.346861 0.0457409 1.66825e-18)
(0.229447 -1.15194 -2.0242e-19)
(0.309433 -0.629788 2.10472e-19)
(-0.169863 0.45537 1.78402e-17)
(0.448607 0.640755 1.6367e-17)
(0.367045 -0.196107 8.14287e-18)
(0.0395296 -0.240165 8.25006e-19)
(0.250287 -1.0631 8.85455e-21)
(0.0867811 -1.36542 3.46684e-19)
(0.342407 -0.0581829 3.75375e-18)
(0.89937 0.405308 6.50471e-18)
(0.5078 0.459324 8.99626e-19)
(-0.242426 -0.036921 1.59873e-18)
(0.119662 -1.31881 -1.30328e-18)
(0.411973 -0.159926 8.50199e-18)
(0.617602 0.627906 6.45842e-18)
(0.279024 -0.904648 8.13865e-20)
(0.159589 -0.436504 9.27223e-19)
(0.285814 -0.589878 6.25057e-19)
(0.36733 0.626802 1.70328e-17)
(0.728184 0.368353 1.22264e-17)
(0.113866 0.630487 1.42772e-17)
(0.0451322 0.717123 1.4046e-17)
(0.737423 0.49047 7.12514e-18)
(0.598505 0.282545 1.16404e-17)
(1.52313 0.321114 4.36716e-19)
(-0.179833 -0.0908012 1.69867e-17)
(0.286338 0.143898 1.71578e-18)
(0.0701551 -1.388 -1.47991e-18)
(0.224308 -0.54408 -1.47154e-19)
(0.281353 -0.839646 6.72568e-20)
(0.863285 0.430754 1.07138e-17)
(0.5947 0.392519 1.28056e-17)
(0.0571178 -0.374264 2.68874e-18)
(0.356876 -0.129396 -5.49241e-18)
(0.400341 -0.148539 8.8079e-18)
(1.3069 1.09171 3.48592e-18)
(0.282704 0.0800214 7.11803e-19)
(1.47047 -0.358918 2.63936e-18)
(0.535966 0.490744 4.58497e-18)
(0.668764 0.104783 -2.81519e-18)
(0.526969 0.277602 2.85238e-19)
(-0.0744117 0.820565 1.42386e-17)
(1.49021 0.716985 1.9844e-18)
(0.491204 0.0283694 4.34312e-18)
(0.846979 0.559857 -2.28345e-18)
(0.282775 -0.16003 9.07865e-18)
(0.627559 0.674486 6.64216e-18)
(0.0462753 -0.257366 3.66715e-19)
(-0.0793568 -0.325217 -2.08521e-18)
(0.13716 -0.426136 1.60408e-18)
(0.266752 -0.732921 -3.29075e-20)
(0.543863 -0.248629 9.84625e-18)
(-0.0443665 -0.207213 6.02725e-18)
(0.0579388 -0.199618 2.12761e-19)
(-0.180232 0.895049 1.50147e-17)
(0.638455 -0.562084 -3.3466e-19)
(0.541273 -0.151976 8.36393e-18)
(0.408103 0.54406 1.41623e-17)
(-0.123364 -0.839374 8.45736e-18)
(0.382449 0.258448 2.69999e-18)
(0.424797 -0.166114 8.8893e-18)
(0.599503 0.115751 -1.4352e-18)
(0.379225 -0.174809 -4.77512e-18)
(-0.377012 -0.258407 8.55595e-19)
(0.0456636 -0.25521 7.29287e-19)
(0.694969 0.117728 1.21826e-17)
(0.704104 0.321285 7.79998e-18)
(0.255087 0.108525 9.04345e-19)
(0.037899 -0.0136735 1.35563e-17)
(0.367883 0.644574 1.54042e-17)
(0.357443 -0.0878742 4.17369e-18)
(0.768776 0.363176 -3.13777e-18)
(0.200535 -0.528728 -1.00674e-19)
(0.456947 0.0304444 1.50696e-18)
(-0.126953 -0.337243 7.10324e-20)
(0.619135 0.620388 5.59172e-18)
(0.254998 -0.690393 -6.40256e-20)
(0.537432 -0.0852229 1.0247e-17)
(0.439776 -0.153127 8.39521e-18)
(0.216457 0.632451 1.55015e-17)
(0.0797609 -0.432937 1.23859e-18)
(0.00435665 0.660703 1.50644e-17)
(0.470214 -0.0974087 -4.82269e-18)
(0.516714 0.406168 3.66463e-19)
(0.160379 -0.988235 8.0815e-20)
(0.516338 0.168948 1.02887e-18)
(0.872438 0.686394 6.78847e-18)
(-0.281158 0.309096 1.80648e-17)
(1.56934 0.181774 -2.11671e-19)
(0.138703 0.614928 1.4735e-17)
(-0.381599 -0.117571 3.7001e-19)
(0.0492508 -0.332602 -2.81569e-18)
(0.0881345 -1.12861 -2.66962e-19)
(0.159728 -0.0928494 1.22163e-19)
(0.218884 -0.626219 1.15872e-19)
(-0.0536824 -0.178699 4.4486e-19)
(0.393836 -0.152039 7.68491e-18)
(0.31093 0.174807 1.66038e-18)
(0.207591 -0.362637 1.40934e-17)
(-0.356255 -0.178593 6.12508e-19)
(-0.257266 -0.308606 -4.36575e-19)
(0.176069 -0.924467 9.2558e-20)
(-0.0286476 0.681108 1.50518e-17)
(0.336721 -0.25629 -1.28096e-19)
(-0.123633 0.820503 1.45312e-17)
(0.230089 0.0255556 3.64366e-19)
(-0.368051 0.0011263 2.05041e-19)
(0.0551156 -1.20725 -5.9445e-19)
(1.20234 1.22071 2.00127e-18)
(0.0678642 -0.211837 9.75456e-19)
(0.481985 0.394595 4.66611e-18)
(1.20001 -0.31687 6.58988e-18)
(0.580775 0.445555 1.3737e-17)
(0.154889 -0.508589 5.55416e-19)
(0.715091 0.32874 -8.98111e-19)
(0.125973 -0.0705707 6.05093e-20)
(0.375559 -0.170109 7.65261e-18)
(-0.0682726 -1.39144 -2.42044e-18)
(0.446396 -0.0877795 -2.54439e-18)
(0.450106 -0.297485 1.58308e-19)
(0.755413 0.683682 6.44844e-18)
(-0.262784 0.78629 1.55814e-17)
(0.899805 0.397825 1.0429e-17)
(0.521052 0.216043 4.7631e-19)
(-0.330291 -0.0856729 3.86624e-19)
(0.0511673 -0.213508 -3.18279e-19)
(0.198919 -0.817775 4.44948e-20)
(0.200188 -0.602219 1.52286e-19)
(0.571962 -0.0475556 2.0286e-18)
(0.855155 0.638212 7.33339e-18)
(1.49976 0.634459 3.67728e-19)
(0.0298289 -0.417652 4.11064e-18)
(0.209812 -0.27101 -1.2921e-18)
(-0.345503 0.444704 1.63727e-17)
(0.631027 0.491951 1.30091e-17)
(0.448817 -0.0132305 -2.11705e-19)
(-0.329772 -0.293863 1.45517e-17)
(0.764211 -0.129311 4.53213e-18)
(0.338434 -0.30355 3.303e-19)
(0.214191 -0.0189563 6.16545e-19)
(0.401228 0.286228 2.70704e-18)
(-0.345857 -0.0539073 3.18058e-19)
(0.412921 -0.224153 1.20583e-17)
(0.0370329 -0.283779 1.04998e-18)
(0.497208 -0.192963 4.96918e-18)
(0.200025 -0.77289 1.93979e-20)
(0.217343 0.42413 1.23492e-17)
(0.243845 0.662585 1.39898e-17)
(0.574628 0.519222 3.89737e-18)
(0.474667 -0.0816322 8.58084e-18)
(-0.390547 0.00518431 1.80688e-18)
(-0.0824314 -1.34266 -1.40454e-18)
(0.878757 0.797066 6.69253e-18)
(-0.427743 -1.36607 2.17893e-19)
(0.389678 -0.118488 5.06944e-18)
(0.391669 -0.049754 4.10513e-18)
(0.231744 0.105685 5.08872e-19)
(0.162557 0.687739 1.41498e-17)
(0.168875 0.162287 2.94266e-18)
(1.18357 0.737679 7.07707e-18)
(0.245603 -0.240048 -8.23705e-19)
(0.0325578 0.561603 1.49073e-17)
(0.205458 0.0483161 1.21198e-19)
(0.13397 -0.500583 -1.58658e-19)
(0.481823 -0.081338 8.4288e-18)
(0.410743 -0.00705262 6.81885e-19)
(0.643404 0.314086 1.28567e-18)
(-0.0926596 -0.327451 -5.23985e-19)
(0.0637797 -0.438349 8.69774e-19)
(0.189684 -0.701901 -1.03088e-19)
(-0.0482065 0.556916 1.48696e-17)
(0.101534 -0.204183 2.39367e-18)
(0.378841 0.240265 7.12104e-18)
(-0.458816 -0.0674655 1.49293e-17)
(0.286657 0.167888 1.32628e-18)
(0.49878 0.415304 3.98379e-18)
(0.735084 0.681586 4.80922e-18)
(0.15645 -0.571888 3.14239e-19)
(0.785294 0.684111 -1.4779e-18)
(0.513589 -0.357 8.14263e-20)
(-0.153593 -1.39321 -1.30237e-18)
(0.18018 -0.673878 -5.68792e-20)
(1.54114 0.393187 -1.65232e-18)
(-0.394901 -1.05659 5.25542e-18)
(-0.259361 -0.261825 -8.56003e-20)
(0.287985 -0.170593 -4.89795e-19)
(0.0561018 -0.972704 3.58346e-20)
(0.0297119 -1.03157 -5.71308e-20)
(-0.333198 0.758767 1.42093e-17)
(-0.21826 0.745783 1.39667e-17)
(0.671314 0.727537 6.92855e-18)
(1.35939 0.90213 2.82365e-18)
(-0.153598 0.665932 1.40077e-17)
(0.112834 -0.202729 2.07449e-19)
(0.110414 -0.877267 6.05515e-20)
(0.0144675 -0.319491 -5.60885e-19)
(-0.108238 -0.0973896 -3.43838e-18)
(1.00035 1.34244 3.01101e-18)
(0.637898 -0.0975637 1.89859e-18)
(0.559965 -0.190984 8.96647e-18)
(0.200934 0.0790946 2.05772e-19)
(-0.0752392 -1.1465 -4.76818e-19)
(0.294006 -0.149854 -6.4042e-20)
(0.0914432 -0.498676 1.52883e-18)
(0.621617 0.559685 3.55595e-18)
(0.811538 0.879144 5.30357e-18)
(0.153994 -0.633209 2.00453e-19)
(0.174725 -0.0258734 4.30783e-19)
(0.564062 -0.100928 4.16515e-18)
(0.613284 0.418694 2.07538e-19)
(-0.277944 -0.164482 7.21326e-20)
(0.321655 -0.199444 3.29094e-18)
(0.00972604 0.386488 8.23277e-18)
(0.487237 -0.119526 8.80686e-18)
(0.122399 -0.833608 4.85552e-20)
(0.36643 0.258999 9.46e-19)
(0.242927 0.132094 6.48157e-19)
(-0.176859 -0.279642 -8.58604e-22)
(0.0854374 0.676732 1.05273e-17)
(0.133361 -0.202856 -3.25833e-19)
(0.499548 -0.00098315 8.72791e-18)
(0.517627 0.511817 1.51689e-17)
(0.0434577 0.665104 1.26054e-17)
(0.174422 0.0298914 8.42318e-20)
(-0.127978 -1.21412 -6.75057e-19)
(0.194243 0.0111976 2.47978e-17)
(0.0672872 -0.50014 2.11266e-18)
(-0.559078 0.221709 1.33873e-17)
(0.136896 -0.562124 6.69925e-19)
(0.121038 -0.265816 6.30713e-19)
(-0.499726 -0.865149 7.53701e-18)
(0.0179132 0.0960882 2.76347e-18)
(-0.00980604 -0.000288372 -1.93889e-18)
(-0.269923 -0.0849227 3.00371e-19)
(0.635496 0.233894 5.01288e-19)
(0.140176 -0.762912 -2.39563e-20)
(-0.0476307 0.661622 1.31213e-17)
(0.307236 -0.0866281 9.3321e-19)
(0.0589992 -0.215273 1.33553e-18)
(0.713192 0.76365 4.10919e-18)
(-0.331523 0.713083 1.32919e-17)
(0.391426 0.376381 7.88701e-18)
(-0.251442 0.677541 1.3741e-17)
(0.0295277 -0.143453 6.44939e-20)
(-0.453536 0.651649 1.33767e-17)
(0.15785 0.00260358 1.61845e-19)
(-0.244478 -0.192447 -6.21873e-20)
(-0.303734 0.519732 1.18168e-17)
(0.138908 -0.618749 7.61115e-19)
(-0.235312 0.0857542 2.45645e-18)
(0.767117 -0.20159 1.52611e-18)
(0.0209102 -0.295877 3.43813e-19)
(0.451829 0.368372 1.14444e-18)
(0.152707 -0.235941 3.20005e-19)
(0.305409 0.202021 9.32939e-19)
(0.140633 -0.732652 -1.30928e-19)
(0.686912 0.984589 5.49919e-18)
(-0.522657 0.157688 1.05934e-18)
(1.55028 0.227455 9.55885e-19)
(0.06436 -0.210243 7.39171e-19)
(0.058709 -0.206193 8.12332e-19)
(1.06515 0.750244 5.8989e-18)
(-0.091231 -0.537993 7.54633e-18)
(-0.247039 -0.112466 3.21358e-19)
(0.370931 -0.236868 1.49716e-19)
(-0.648116 0.376525 1.24348e-17)
(-0.0582942 -0.478441 9.54713e-19)
(-0.341616 0.667865 1.19164e-17)
(-0.603057 -1.23726 1.41651e-18)
(0.133804 -0.68667 -8.66037e-20)
(0.698514 0.97876 4.19039e-18)
(0.200868 -0.17456 -3.72519e-19)
(0.580223 0.150599 8.8817e-18)
(0.554296 0.514914 1.76073e-18)
(-0.0544624 -0.281923 -9.91816e-19)
(0.401013 -0.10525 5.13578e-18)
(-0.744272 -0.449801 9.51729e-18)
(0.414111 -0.285126 7.23045e-18)
(0.0590933 -0.26194 8.45964e-19)
(-0.0602068 0.642502 7.17366e-18)
(0.629025 0.323283 -4.99108e-19)
(0.0116345 -0.90746 1.43921e-20)
(0.381639 0.2976 2.86944e-19)
(0.634575 0.393798 8.91761e-18)
(0.0111989 -0.268683 -2.87011e-19)
(-0.179811 0.100594 2.5746e-18)
(0.126224 -0.0418677 7.83383e-20)
(0.0971724 -0.551963 8.68747e-19)
(1.22438 0.831599 2.42338e-18)
(0.256059 -0.109232 1.12056e-17)
(1.21487 -0.755998 -5.76229e-19)
(0.0492108 -0.479896 2.86218e-18)
(-0.533328 -1.35654 1.7526e-18)
(-0.0293069 -0.138741 2.37488e-18)
(-0.110409 -1.03551 -2.4121e-19)
(0.0513614 -0.248875 -3.46617e-19)
(0.20991 -0.148178 -1.28824e-19)
(0.161176 0.0556024 -2.47153e-19)
(-0.0689773 -0.986293 -1.10547e-19)
(-0.121512 0.77498 7.9686e-18)
(0.599153 0.700267 2.90205e-18)
(0.12704 -0.668848 1.03595e-20)
(0.0325528 -0.867764 2.12712e-20)
(-0.791832 0.295137 1.56422e-18)
(-0.127144 -0.165899 9.34311e-19)
(0.183558 0.0981719 1.22e-19)
(0.861672 0.561514 3.61707e-19)
(0.674604 0.277863 4.98743e-19)
(0.472798 0.928696 6.04787e-18)
(0.230495 -0.212752 2.69749e-18)
(0.104245 -0.600427 1.00651e-18)
(-0.329507 -1.32987 -2.30291e-19)
(0.0582747 -0.218191 7.06348e-19)
(-0.757128 -0.169463 9.41267e-18)
(-0.345754 0.717632 7.77389e-18)
(0.467261 0.422629 2.34229e-19)
(0.0269079 -0.471559 1.87255e-18)
(0.0741482 -0.80537 3.88545e-20)
(0.0572117 -0.256928 6.75498e-19)
(-0.351178 0.0199558 1.68057e-19)
(0.224614 0.14954 3.03282e-19)
(0.0903384 -0.217248 3.22758e-19)
(-0.691738 0.523391 1.17704e-17)
(-0.159128 -0.224933 -9.6929e-20)
(0.556187 1.07746 4.45041e-18)
(0.532533 0.336779 1.39353e-18)
(0.12891 0.00196851 -1.09625e-20)
(1.08251 1.04124 3.67547e-18)
(-0.260207 -1.1214 -2.14117e-19)
(-0.104301 -0.232658 -2.76817e-19)
(-0.485378 0.648839 1.22323e-17)
(0.0832213 -0.776134 -2.50848e-20)
(0.5238 0.580314 1.49131e-18)
(-0.516537 0.679926 1.1191e-17)
(-0.495435 0.708797 6.76251e-18)
(0.115342 -0.191382 2.58302e-19)
(-0.839695 -1.11365 2.46819e-18)
(0.105934 -0.645736 4.78323e-19)
(0.280112 0.218011 4.18884e-19)
(0.244469 0.20126 7.97299e-18)
(0.54757 0.885962 2.41872e-18)
(0.40391 0.391455 8.41409e-18)
(0.0804152 -0.552178 1.25333e-18)
(-0.860226 0.443115 9.93463e-18)
(0.0978059 -0.730603 -1.42464e-19)
(0.192448 0.74623 -2.1813e-18)
(0.807093 -0.283279 3.87078e-19)
(-0.313591 -0.0318209 1.87848e-19)
(-0.0768263 -0.00372361 4.75828e-18)
(0.543715 0.896549 7.71662e-18)
(0.744432 0.4421 -3.22475e-18)
(0.137352 0.0443857 -3.50053e-19)
(-0.211212 -0.0680611 3.49076e-18)
(0.515706 0.751976 1.75361e-18)
(-1.05046 0.0528912 1.02226e-17)
(0.158508 0.0839248 -3.43082e-21)
(1.2706 0.46871 2.92736e-18)
(-0.621707 0.714356 6.16984e-18)
(-0.016879 -0.214165 3.08181e-19)
(0.08754 -0.596129 2.01055e-18)
(-0.929779 -0.93022 4.38058e-18)
(-0.311813 0.178304 1.26019e-18)
(0.118791 0.0238635 -1.00661e-19)
(0.344651 0.306392 8.02675e-19)
(-0.191277 -0.148297 3.11735e-19)
(0.0431208 -0.54969 2.20853e-18)
(-0.621491 0.601901 1.02042e-17)
(-0.332701 -1.17236 -1.39972e-19)
(-0.249631 0.34874 2.11569e-18)
(-0.0462749 -0.54503 1.10272e-18)
(0.0983022 -0.0312958 -6.72106e-20)
(-0.305569 0.747834 2.83239e-18)
(-0.158733 -0.165452 -1.02923e-20)
(0.385117 1.15932 5.21824e-18)
(0.022943 -0.19955 4.46504e-19)
(0.153889 -0.130966 -2.50488e-19)
(0.0977911 -0.710557 -7.43564e-19)
(0.190165 0.127339 1.887e-19)
(0.0639882 -0.0521921 1.86135e-21)
(0.997926 1.13025 3.03459e-18)
(0.41213 0.421005 8.48106e-20)
(-0.0481686 -0.65448 3.03819e-18)
(0.0931473 -0.638345 -5.18709e-20)
(0.081243 -0.0733965 7.64589e-20)
(-0.0173215 0.116978 9.68502e-19)
(-0.413624 -0.0208741 1.10042e-18)
(0.0559694 -0.22978 1.0969e-18)
(0.234308 0.185471 1.31447e-19)
(-1.06754 0.252373 9.61109e-18)
(0.0411717 -0.515116 2.47723e-18)
(-0.63201 0.258357 5.43186e-19)
(0.441915 1.02342 2.22522e-18)
(-0.456273 0.77135 2.54344e-18)
(0.880656 -0.394794 1.01484e-18)
(-0.792392 0.749838 5.48027e-18)
(-0.658106 0.732115 1.06738e-17)
(0.439167 0.556046 5.80903e-19)
(0.091978 -0.680709 1.81019e-20)
(0.141621 -0.135257 2.38916e-17)